VARIABLES = "X", "Y", "ro", "u", "v", "e_tot" 
ZONE I=3, J=3, DATAPACKING=POINT
-8.000000e+00 -8.000000e+00 1.000019e+00 9.999822e-01 -2.619048e-07 3.000001e+00
-7.500000e+00 -8.000000e+00 9.998190e-01 9.998832e-01 2.174674e-05 2.999702e+00
-7.000000e+00 -8.000000e+00 9.998091e-01 9.998912e-01 5.643310e-06 2.999700e+00
-8.000000e+00 -7.500000e+00 1.000228e+00 1.000088e+00 -4.497234e-04 3.000316e+00
-7.500000e+00 -7.500000e+00 1.000146e+00 1.000059e+00 -2.966802e-04 3.000205e+00
-7.000000e+00 -7.500000e+00 1.000021e+00 9.999994e-01 -8.132993e-05 3.000020e+00
-8.000000e+00 -7.000000e+00 9.999346e-01 9.999506e-01 -1.436420e-05 2.999885e+00
-7.500000e+00 -7.000000e+00 1.000319e+00 1.000183e+00 -3.343416e-04 3.000501e+00
-7.000000e+00 -7.000000e+00 1.000400e+00 1.000245e+00 -3.831849e-04 3.000645e+00
VARIABLES = "X", "Y", "ro", "u", "v", "e_tot" 
ZONE I=3, J=3, DATAPACKING=POINT
-8.000000e+00 -7.000000e+00 9.998952e-01 9.999539e-01 5.099640e-05 2.999849e+00
-7.500000e+00 -7.000000e+00 1.000260e+00 1.000181e+00 -2.280249e-04 3.000441e+00
-7.000000e+00 -7.000000e+00 1.000369e+00 1.000240e+00 -3.157487e-04 3.000608e+00
-8.000000e+00 -6.500000e+00 9.994712e-01 9.997550e-01 6.174665e-04 2.999227e+00
-7.500000e+00 -6.500000e+00 9.996183e-01 9.997954e-01 4.115025e-04 2.999414e+00
-7.000000e+00 -6.500000e+00 9.999438e-01 9.999688e-01 4.861205e-05 2.999913e+00
-8.000000e+00 -6.000000e+00 9.999727e-01 1.000053e+00 6.959051e-05 3.000024e+00
-7.500000e+00 -6.000000e+00 9.994853e-01 9.997926e-01 5.574566e-04 2.999278e+00
-7.000000e+00 -6.000000e+00 9.993334e-01 9.997008e-01 7.096169e-04 2.999034e+00
VARIABLES = "X", "Y", "ro", "u", "v", "e_tot" 
ZONE I=3, J=3, DATAPACKING=POINT
-8.000000e+00 -6.000000e+00 9.999973e-01 1.000040e+00 7.076624e-05 3.000036e+00
-7.500000e+00 -6.000000e+00 9.995917e-01 9.997915e-01 4.584883e-04 2.999383e+00
-7.000000e+00 -6.000000e+00 9.994335e-01 9.997095e-01 6.152425e-04 2.999143e+00
-8.000000e+00 -5.500000e+00 1.000279e+00 9.999685e-01 -3.729850e-04 3.000249e+00
-7.500000e+00 -5.500000e+00 1.000250e+00 1.000000e+00 -3.267905e-04 3.000250e+00
-7.000000e+00 -5.500000e+00 9.999293e-01 9.998563e-01 1.642983e-05 2.999786e+00
-8.000000e+00 -5.000000e+00 9.998964e-01 1.000014e+00 6.406223e-05 2.999902e+00
-7.500000e+00 -5.000000e+00 1.000343e+00 1.000335e+00 -3.835350e-04 3.000680e+00
-7.000000e+00 -5.000000e+00 1.000648e+00 1.000472e+00 -6.971657e-04 3.001119e+00
VARIABLES = "X", "Y", "ro", "u", "v", "e_tot" 
ZONE I=3, J=3, DATAPACKING=POINT
-8.000000e+00 -5.000000e+00 1.000014e+00 1.000030e+00 5.269649e-05 3.000036e+00
-7.500000e+00 -5.000000e+00 1.000343e+00 1.000348e+00 -2.418298e-04 3.000692e+00
-7.000000e+00 -5.000000e+00 1.000579e+00 1.000474e+00 -5.031170e-04 3.001052e+00
-8.000000e+00 -4.500000e+00 1.000073e+00 9.997293e-01 -2.831957e-04 2.999809e+00
-7.500000e+00 -4.500000e+00 9.998642e-01 9.996065e-01 -9.335220e-05 2.999469e+00
-7.000000e+00 -4.500000e+00 1.000055e+00 9.998375e-01 -2.256273e-04 2.999893e+00
-8.000000e+00 -4.000000e+00 1.000498e+00 1.001446e+00 -2.520747e-04 3.001901e+00
-7.500000e+00 -4.000000e+00 1.000164e+00 1.000795e+00 -8.622953e-05 3.000970e+00
-7.000000e+00 -4.000000e+00 9.997768e-01 1.000185e+00 2.168343e-04 2.999961e+00
VARIABLES = "X", "Y", "ro", "u", "v", "e_tot" 
ZONE I=3, J=3, DATAPACKING=POINT
-8.000000e+00 -4.000000e+00 1.000615e+00 1.001461e+00 9.529483e-05 3.002032e+00
-7.500000e+00 -4.000000e+00 1.000247e+00 1.000799e+00 8.591956e-05 3.001057e+00
-7.000000e+00 -4.000000e+00 9.998681e-01 1.000186e+00 2.057761e-04 3.000054e+00
-8.000000e+00 -3.500000e+00 9.997285e-01 9.994743e-01 -5.195421e-05 2.999240e+00
-7.500000e+00 -3.500000e+00 9.999614e-01 9.997130e-01 -1.223712e-04 2.999665e+00
-7.000000e+00 -3.500000e+00 9.999510e-01 9.998510e-01 -4.634772e-05 2.999802e+00
-8.000000e+00 -3.000000e+00 1.000197e+00 1.003762e+00 1.147995e-03 3.003705e+00
-7.500000e+00 -3.000000e+00 9.998212e-01 1.001237e+00 6.224471e-04 3.001123e+00
-7.000000e+00 -3.000000e+00 9.998964e-01 1.000382e+00 9.720168e-05 3.000280e+00
VARIABLES = "X", "Y", "ro", "u", "v", "e_tot" 
ZONE I=3, J=3, DATAPACKING=POINT
-8.000000e+00 -3.000000e+00 1.000306e+00 1.003789e+00 1.482433e-03 3.003841e+00
-7.500000e+00 -3.000000e+00 9.998275e-01 1.001243e+00 7.573922e-04 3.001136e+00
-7.000000e+00 -3.000000e+00 9.998483e-01 1.000387e+00 2.260665e-04 3.000236e+00
-8.000000e+00 -2.500000e+00 9.998183e-01 1.003570e+00 4.359208e-03 3.003710e+00
-7.500000e+00 -2.500000e+00 9.998478e-01 1.000609e+00 1.750891e-03 3.000416e+00
-7.000000e+00 -2.500000e+00 9.994202e-01 9.999564e-01 7.459401e-04 2.999372e+00
-8.000000e+00 -2.000000e+00 1.000326e+00 1.009315e+00 1.198986e-02 3.008459e+00
-7.500000e+00 -2.000000e+00 1.000341e+00 1.002314e+00 3.134807e-03 3.003002e+00
-7.000000e+00 -2.000000e+00 9.995939e-01 1.000497e+00 9.891440e-04 3.000134e+00
VARIABLES = "X", "Y", "ro", "u", "v", "e_tot" 
ZONE I=3, J=3, DATAPACKING=POINT
-8.000000e+00 -2.000000e+00 9.997997e-01 1.009261e+00 1.210036e-02 3.007871e+00
-7.500000e+00 -2.000000e+00 1.000053e+00 1.002284e+00 3.222616e-03 3.002685e+00
-7.000000e+00 -2.000000e+00 9.994941e-01 1.000473e+00 9.952915e-04 3.000010e+00
-8.000000e+00 -1.500000e+00 9.989465e-01 1.017555e+00 3.004281e-02 3.017679e+00
-7.500000e+00 -1.500000e+00 1.000079e+00 1.004632e+00 9.044713e-03 3.004928e+00
-7.000000e+00 -1.500000e+00 9.995768e-01 1.001274e+00 2.388677e-03 3.000962e+00
-8.000000e+00 -1.000000e+00 9.991505e-01 1.018529e+00 5.269374e-02 3.016655e+00
-7.500000e+00 -1.000000e+00 9.992015e-01 1.003338e+00 1.687434e-02 3.004140e+00
-7.000000e+00 -1.000000e+00 9.991523e-01 1.000383e+00 3.923285e-03 2.999800e+00
VARIABLES = "X", "Y", "ro", "u", "v", "e_tot" 
ZONE I=3, J=3, DATAPACKING=POINT
-8.000000e+00 -1.000000e+00 9.991245e-01 1.018524e+00 5.246335e-02 3.016616e+00
-7.500000e+00 -1.000000e+00 9.993356e-01 1.003334e+00 1.679008e-02 3.004271e+00
-7.000000e+00 -1.000000e+00 9.991963e-01 1.000408e+00 3.866230e-03 2.999869e+00
-8.000000e+00 -5.000000e-01 1.000166e+00 1.010924e+00 7.226207e-02 3.006540e+00
-7.500000e+00 -5.000000e-01 9.991800e-01 1.002241e+00 2.237985e-02 3.002769e+00
-7.000000e+00 -5.000000e-01 9.987834e-01 1.000758e+00 5.095446e-03 3.000895e+00
-8.000000e+00 0.000000e+00 9.999043e-01 9.996516e-01 8.068452e-02 2.993645e+00
-7.500000e+00 0.000000e+00 9.994437e-01 9.995427e-01 2.431233e-02 2.999104e+00
-7.000000e+00 0.000000e+00 9.985457e-01 1.000447e+00 6.446650e-03 3.001205e+00
VARIABLES = "X", "Y", "ro", "u", "v", "e_tot" 
ZONE I=3, J=3, DATAPACKING=POINT
-8.000000e+00 0.000000e+00 1.000645e+00 9.998711e-01 8.086193e-02 2.994579e+00
-7.500000e+00 0.000000e+00 9.997309e-01 9.995878e-01 2.450266e-02 2.999439e+00
-7.000000e+00 0.000000e+00 9.987424e-01 1.000458e+00 6.568311e-03 3.001409e+00
-8.000000e+00 5.000000e-01 9.999381e-01 9.845464e-01 7.013171e-02 2.979487e+00
-7.500000e+00 5.000000e-01 9.992018e-01 9.937866e-01 2.034375e-02 2.993389e+00
-7.000000e+00 5.000000e-01 9.987971e-01 9.982729e-01 5.275105e-03 2.998924e+00
-8.000000e+00 1.000000e+00 1.001054e+00 9.839539e-01 4.828133e-02 2.981780e+00
-7.500000e+00 1.000000e+00 9.995525e-01 9.960869e-01 1.364683e-02 2.996652e+00
-7.000000e+00 1.000000e+00 9.999337e-01 9.995230e-01 3.046048e-03 3.000103e+00
VARIABLES = "X", "Y", "ro", "u", "v", "e_tot" 
ZONE I=3, J=3, DATAPACKING=POINT
-8.000000e+00 1.000000e+00 1.000808e+00 9.839802e-01 4.874141e-02 2.981583e+00
-7.500000e+00 1.000000e+00 9.993986e-01 9.960979e-01 1.389758e-02 2.996514e+00
-7.000000e+00 1.000000e+00 9.998287e-01 9.995122e-01 3.229196e-03 2.999989e+00
-8.000000e+00 1.500000e+00 1.000304e+00 9.848052e-01 2.736825e-02 2.985251e+00
-7.500000e+00 1.500000e+00 9.996678e-01 9.957224e-01 8.118714e-03 2.995946e+00
-7.000000e+00 1.500000e+00 1.000254e+00 9.986998e-01 1.886507e-03 2.999006e+00
-8.000000e+00 2.000000e+00 1.000953e+00 9.919010e-01 1.133978e-02 2.992847e+00
-7.500000e+00 2.000000e+00 1.000317e+00 9.984014e-01 3.232662e-03 2.998750e+00
-7.000000e+00 2.000000e+00 1.000457e+00 9.999096e-01 6.258155e-04 3.000401e+00
VARIABLES = "X", "Y", "ro", "u", "v", "e_tot" 
ZONE I=3, J=3, DATAPACKING=POINT
-8.000000e+00 2.000000e+00 1.000510e+00 9.918686e-01 1.134708e-02 2.992373e+00
-7.500000e+00 2.000000e+00 1.000078e+00 9.983830e-01 3.269268e-03 2.998492e+00
-7.000000e+00 2.000000e+00 1.000323e+00 9.998973e-01 6.392088e-04 3.000255e+00
-8.000000e+00 2.500000e+00 1.000712e+00 9.974865e-01 4.498748e-03 2.998241e+00
-7.500000e+00 2.500000e+00 1.000308e+00 9.997231e-01 1.605464e-03 3.000056e+00
-7.000000e+00 2.500000e+00 1.000407e+00 1.000109e+00 5.917250e-04 3.000510e+00
-8.000000e+00 3.000000e+00 1.000094e+00 9.974097e-01 1.642741e-03 2.997497e+00
-7.500000e+00 3.000000e+00 1.000161e+00 9.990603e-01 7.551833e-04 2.999216e+00
-7.000000e+00 3.000000e+00 1.000259e+00 9.998008e-01 3.508793e-04 3.000066e+00
VARIABLES = "X", "Y", "ro", "u", "v", "e_tot" 
ZONE I=3, J=3, DATAPACKING=POINT
-8.000000e+00 3.000000e+00 1.000109e+00 9.974136e-01 1.319356e-03 2.997516e+00
-7.500000e+00 3.000000e+00 1.000167e+00 9.990584e-01 6.306118e-04 2.999220e+00
-7.000000e+00 3.000000e+00 1.000272e+00 9.998000e-01 3.398823e-04 3.000079e+00
-8.000000e+00 3.500000e+00 1.000315e+00 1.000489e+00 3.646466e-04 3.000806e+00
-7.500000e+00 3.500000e+00 1.000116e+00 1.000365e+00 1.136563e-04 3.000482e+00
-7.000000e+00 3.500000e+00 9.999333e-01 1.000137e+00 -1.247536e-04 3.000070e+00
-8.000000e+00 4.000000e+00 9.996367e-01 9.988457e-01 2.083134e-04 2.998481e+00
-7.500000e+00 4.000000e+00 9.995220e-01 9.991360e-01 -1.468453e-04 2.998657e+00
-7.000000e+00 4.000000e+00 9.996812e-01 9.995611e-01 -2.076028e-04 2.999243e+00
VARIABLES = "X", "Y", "ro", "u", "v", "e_tot" 
ZONE I=3, J=3, DATAPACKING=POINT
-8.000000e+00 4.000000e+00 9.997550e-01 9.988676e-01 2.259809e-05 2.998621e+00
-7.500000e+00 4.000000e+00 9.995204e-01 9.991461e-01 -3.531917e-04 2.998665e+00
-7.000000e+00 4.000000e+00 9.996413e-01 9.995601e-01 -3.650116e-04 2.999202e+00
-8.000000e+00 4.500000e+00 9.995501e-01 1.000007e+00 -5.124269e-04 2.999558e+00
-7.500000e+00 4.500000e+00 9.998850e-01 1.000190e+00 -2.009633e-04 3.000075e+00
-7.000000e+00 4.500000e+00 1.000315e+00 1.000415e+00 2.108381e-04 3.000730e+00
-8.000000e+00 5.000000e+00 9.998899e-01 9.996873e-01 1.338012e-04 2.999576e+00
-7.500000e+00 5.000000e+00 1.000383e+00 1.000122e+00 5.133593e-04 3.000505e+00
-7.000000e+00 5.000000e+00 1.000452e+00 1.000229e+00 5.112138e-04 3.000682e+00
VARIABLES = "X", "Y", "ro", "u", "v", "e_tot" 
ZONE I=3, J=3, DATAPACKING=POINT
-8.000000e+00 5.000000e+00 9.999646e-01 9.996834e-01 6.606259e-05 2.999647e+00
-7.500000e+00 5.000000e+00 1.000493e+00 1.000126e+00 5.421279e-04 3.000619e+00
-7.000000e+00 5.000000e+00 1.000527e+00 1.000239e+00 5.394645e-04 3.000767e+00
-8.000000e+00 5.500000e+00 1.000554e+00 1.000423e+00 5.198173e-04 3.000978e+00
-7.500000e+00 5.500000e+00 1.000358e+00 1.000317e+00 2.881945e-04 3.000675e+00
-7.000000e+00 5.500000e+00 9.999624e-01 1.000046e+00 -9.659107e-05 3.000008e+00
-8.000000e+00 6.000000e+00 1.000120e+00 1.000010e+00 2.487663e-04 3.000130e+00
-7.500000e+00 6.000000e+00 9.997506e-01 9.997553e-01 -1.471387e-04 2.999506e+00
-7.000000e+00 6.000000e+00 9.996617e-01 9.997106e-01 -2.811651e-04 2.999372e+00
VARIABLES = "X", "Y", "ro", "u", "v", "e_tot" 
ZONE I=3, J=3, DATAPACKING=POINT
-8.000000e+00 6.000000e+00 1.000127e+00 1.000017e+00 1.968270e-04 3.000143e+00
-7.500000e+00 6.000000e+00 9.997182e-01 9.997563e-01 -2.413764e-04 2.999474e+00
-7.000000e+00 6.000000e+00 9.996409e-01 9.997072e-01 -3.439118e-04 2.999348e+00
-8.000000e+00 6.500000e+00 9.997587e-01 9.998776e-01 -3.067541e-04 2.999636e+00
-7.500000e+00 6.500000e+00 9.998189e-01 9.999075e-01 -1.769953e-04 2.999726e+00
-7.000000e+00 6.500000e+00 1.000005e+00 1.000015e+00 3.786387e-05 3.000020e+00
-8.000000e+00 7.000000e+00 1.000034e+00 9.999982e-01 -1.240648e-04 3.000032e+00
-7.500000e+00 7.000000e+00 1.000211e+00 1.000103e+00 8.419637e-05 3.000314e+00
-7.000000e+00 7.000000e+00 1.000212e+00 1.000105e+00 1.835356e-04 3.000318e+00
VARIABLES = "X", "Y", "ro", "u", "v", "e_tot" 
ZONE I=3, J=3, DATAPACKING=POINT
-8.000000e+00 7.000000e+00 1.000037e+00 9.999943e-01 -7.097067e-05 3.000031e+00
-7.500000e+00 7.000000e+00 1.000240e+00 1.000102e+00 1.332140e-04 3.000342e+00
-7.000000e+00 7.000000e+00 1.000239e+00 1.000107e+00 1.987053e-04 3.000346e+00
-8.000000e+00 7.500000e+00 1.000085e+00 1.000047e+00 3.085923e-04 3.000132e+00
-7.500000e+00 7.500000e+00 1.000095e+00 1.000056e+00 1.649301e-04 3.000151e+00
-7.000000e+00 7.500000e+00 1.000049e+00 1.000028e+00 2.712730e-07 3.000077e+00
-8.000000e+00 8.000000e+00 9.999886e-01 9.999814e-01 7.744257e-05 2.999970e+00
-7.500000e+00 8.000000e+00 9.997983e-01 9.998814e-01 9.129794e-05 2.999680e+00
-7.000000e+00 8.000000e+00 9.998056e-01 9.998894e-01 2.989062e-05 2.999695e+00
VARIABLES = "X", "Y", "ro", "u", "v", "e_tot" 
ZONE I=3, J=3, DATAPACKING=POINT
-7.000000e+00 -8.000000e+00 9.997992e-01 9.998812e-01 7.356256e-06 2.999680e+00
-6.500000e+00 -8.000000e+00 9.999377e-01 9.999743e-01 -2.805434e-05 2.999912e+00
-6.000000e+00 -8.000000e+00 1.000020e+00 1.000020e+00 -3.025399e-05 3.000040e+00
-7.000000e+00 -7.500000e+00 1.000014e+00 9.999904e-01 -7.611821e-05 3.000005e+00
-6.500000e+00 -7.500000e+00 9.999576e-01 9.999647e-01 3.592929e-05 2.999922e+00
-6.000000e+00 -7.500000e+00 9.999806e-01 9.999859e-01 3.306548e-05 2.999967e+00
-7.000000e+00 -7.000000e+00 1.000428e+00 1.000276e+00 -4.007570e-04 3.000705e+00
-6.500000e+00 -7.000000e+00 1.000169e+00 1.000111e+00 -1.485385e-04 3.000280e+00
-6.000000e+00 -7.000000e+00 9.999732e-01 9.999883e-01 3.509898e-05 2.999962e+00
VARIABLES = "X", "Y", "ro", "u", "v", "e_tot" 
ZONE I=3, J=3, DATAPACKING=POINT
-7.000000e+00 -7.000000e+00 1.000396e+00 1.000271e+00 -3.309241e-04 3.000667e+00
-6.500000e+00 -7.000000e+00 1.000177e+00 1.000109e+00 -1.519377e-04 3.000286e+00
-6.000000e+00 -7.000000e+00 9.999904e-01 9.999898e-01 1.095616e-05 2.999980e+00
-7.000000e+00 -6.500000e+00 9.999483e-01 9.999780e-01 4.389898e-05 2.999926e+00
-6.500000e+00 -6.500000e+00 1.000197e+00 1.000141e+00 -1.950758e-04 3.000338e+00
-6.000000e+00 -6.500000e+00 1.000184e+00 1.000129e+00 -1.779284e-04 3.000313e+00
-7.000000e+00 -6.000000e+00 9.992734e-01 9.996309e-01 7.497039e-04 2.998904e+00
-6.500000e+00 -6.000000e+00 9.997379e-01 9.999139e-01 2.826006e-04 2.999652e+00
-6.000000e+00 -6.000000e+00 1.000171e+00 1.000161e+00 -1.548428e-04 3.000332e+00
VARIABLES = "X", "Y", "ro", "u", "v", "e_tot" 
ZONE I=3, J=3, DATAPACKING=POINT
-7.000000e+00 -6.000000e+00 9.993784e-01 9.996428e-01 6.466706e-04 2.999021e+00
-6.500000e+00 -6.000000e+00 9.997562e-01 9.999216e-01 2.927121e-04 2.999678e+00
-6.000000e+00 -6.000000e+00 1.000142e+00 1.000163e+00 -9.086667e-05 3.000304e+00
-7.000000e+00 -5.500000e+00 9.999322e-01 9.998538e-01 1.376707e-05 2.999786e+00
-6.500000e+00 -5.500000e+00 9.996117e-01 9.996794e-01 3.334634e-04 2.999291e+00
-6.000000e+00 -5.500000e+00 9.996990e-01 9.997827e-01 2.727733e-04 2.999482e+00
-7.000000e+00 -5.000000e+00 1.000736e+00 1.000578e+00 -7.540738e-04 3.001313e+00
-6.500000e+00 -5.000000e+00 1.000269e+00 1.000201e+00 -2.895986e-04 3.000469e+00
-6.000000e+00 -5.000000e+00 9.997074e-01 9.998120e-01 2.856151e-04 2.999520e+00
VARIABLES = "X", "Y", "ro", "u", "v", "e_tot" 
ZONE I=3, J=3, DATAPACKING=POINT
-7.000000e+00 -5.000000e+00 1.000658e+00 1.000574e+00 -5.421634e-04 3.001231e+00
-6.500000e+00 -5.000000e+00 1.000258e+00 1.000194e+00 -2.315108e-04 3.000451e+00
-6.000000e+00 -5.000000e+00 9.997588e-01 9.998093e-01 2.206254e-04 2.999568e+00
-7.000000e+00 -4.500000e+00 1.000034e+00 9.998179e-01 -2.118958e-04 2.999852e+00
-6.500000e+00 -4.500000e+00 1.000417e+00 1.000213e+00 -4.665590e-04 3.000631e+00
-6.000000e+00 -4.500000e+00 1.000326e+00 1.000199e+00 -3.251386e-04 3.000525e+00
-7.000000e+00 -4.000000e+00 9.996758e-01 1.000062e+00 2.692003e-04 2.999734e+00
-6.500000e+00 -4.000000e+00 9.999765e-01 1.000119e+00 -1.013073e-05 3.000092e+00
-6.000000e+00 -4.000000e+00 1.000468e+00 1.000389e+00 -4.729698e-04 3.000860e+00
VARIABLES = "X", "Y", "ro", "u", "v", "e_tot" 
ZONE I=3, J=3, DATAPACKING=POINT
-7.000000e+00 -4.000000e+00 9.997746e-01 1.000068e+00 2.375864e-04 2.999839e+00
-6.500000e+00 -4.000000e+00 1.000010e+00 1.000128e+00 -1.042935e-05 3.000135e+00
-6.000000e+00 -4.000000e+00 1.000422e+00 1.000396e+00 -3.883340e-04 3.000820e+00
-7.000000e+00 -3.500000e+00 9.999699e-01 9.998672e-01 -5.834961e-05 2.999840e+00
-6.500000e+00 -3.500000e+00 9.997981e-01 9.997823e-01 8.730090e-05 2.999583e+00
-6.000000e+00 -3.500000e+00 9.999786e-01 9.999980e-01 -2.425998e-05 2.999975e+00
-7.000000e+00 -3.000000e+00 9.999554e-01 1.000438e+00 6.701485e-05 3.000376e+00
-6.500000e+00 -3.000000e+00 1.000001e+00 1.000104e+00 -5.517864e-05 3.000087e+00
-6.000000e+00 -3.000000e+00 9.998456e-01 9.999330e-01 1.066773e-04 2.999791e+00
VARIABLES = "X", "Y", "ro", "u", "v", "e_tot" 
ZONE I=3, J=3, DATAPACKING=POINT
-7.000000e+00 -3.000000e+00 9.999013e-01 1.000440e+00 2.069036e-04 3.000325e+00
-6.500000e+00 -3.000000e+00 9.999495e-01 1.000098e+00 2.436877e-05 3.000030e+00
-6.000000e+00 -3.000000e+00 9.998554e-01 9.999243e-01 8.681373e-05 2.999792e+00
-7.000000e+00 -2.500000e+00 9.993812e-01 9.998777e-01 7.763069e-04 2.999272e+00
-6.500000e+00 -2.500000e+00 9.997194e-01 9.997927e-01 3.438103e-04 2.999529e+00
-6.000000e+00 -2.500000e+00 9.998576e-01 9.999665e-01 1.030920e-04 2.999813e+00
-7.000000e+00 -2.000000e+00 9.995628e-01 1.000332e+00 1.037904e-03 2.999843e+00
-6.500000e+00 -2.000000e+00 9.995698e-01 9.994611e-01 5.373984e-04 2.998934e+00
-6.000000e+00 -2.000000e+00 9.996158e-01 9.998228e-01 1.756305e-04 2.999503e+00
VARIABLES = "X", "Y", "ro", "u", "v", "e_tot" 
ZONE I=3, J=3, DATAPACKING=POINT
-7.000000e+00 -2.000000e+00 9.994700e-01 1.000311e+00 1.034119e-03 2.999729e+00
-6.500000e+00 -2.000000e+00 9.995678e-01 9.994563e-01 4.946697e-04 2.998927e+00
-6.000000e+00 -2.000000e+00 9.996077e-01 9.998270e-01 1.612439e-04 2.999500e+00
-7.000000e+00 -1.500000e+00 9.996053e-01 1.001160e+00 2.301136e-03 3.000891e+00
-6.500000e+00 -1.500000e+00 9.996963e-01 9.997747e-01 6.072189e-04 2.999482e+00
-6.000000e+00 -1.500000e+00 9.995284e-01 9.998892e-01 2.684342e-04 2.999402e+00
-7.000000e+00 -1.000000e+00 9.993186e-01 1.000309e+00 3.604900e-03 2.999668e+00
-6.500000e+00 -1.000000e+00 9.998894e-01 9.995121e-01 6.921409e-04 2.999133e+00
-6.000000e+00 -1.000000e+00 9.995360e-01 9.998041e-01 2.916110e-04 2.999489e+00
VARIABLES = "X", "Y", "ro", "u", "v", "e_tot" 
ZONE I=3, J=3, DATAPACKING=POINT
-7.000000e+00 -1.000000e+00 9.993544e-01 1.000325e+00 3.549600e-03 2.999719e+00
-6.500000e+00 -1.000000e+00 9.998932e-01 9.995129e-01 7.013559e-04 2.999137e+00
-6.000000e+00 -1.000000e+00 9.995524e-01 9.998033e-01 2.947608e-04 2.999505e+00
-7.000000e+00 -5.000000e-01 9.988862e-01 1.000667e+00 4.721588e-03 3.000708e+00
-6.500000e+00 -5.000000e-01 9.999065e-01 9.996855e-01 8.644319e-04 2.999268e+00
-6.000000e+00 -5.000000e-01 9.996878e-01 9.999750e-01 1.462395e-04 2.999656e+00
-7.000000e+00 0.000000e+00 9.985875e-01 1.000351e+00 6.179393e-03 3.001177e+00
-6.500000e+00 0.000000e+00 9.999192e-01 9.997628e-01 1.201734e-03 2.999430e+00
-6.000000e+00 0.000000e+00 9.998739e-01 1.000084e+00 7.551796e-05 2.999736e+00
VARIABLES = "X", "Y", "ro", "u", "v", "e_tot" 
ZONE I=3, J=3, DATAPACKING=POINT
-7.000000e+00 0.000000e+00 9.987978e-01 1.000369e+00 6.287288e-03 3.001405e+00
-6.500000e+00 0.000000e+00 9.999935e-01 9.997778e-01 1.245248e-03 2.999520e+00
-6.000000e+00 0.000000e+00 9.998816e-01 1.000086e+00 8.402912e-05 2.999746e+00
-7.000000e+00 5.000000e-01 9.989408e-01 9.983075e-01 5.016010e-03 2.999021e+00
-6.500000e+00 5.000000e-01 9.999852e-01 9.995074e-01 8.928576e-04 2.999195e+00
-6.000000e+00 5.000000e-01 1.000041e+00 9.999602e-01 4.526121e-05 2.999909e+00
-7.000000e+00 1.000000e+00 1.000059e+00 9.996408e-01 2.821622e-03 3.000177e+00
-6.500000e+00 1.000000e+00 1.000208e+00 1.000398e+00 5.815656e-04 3.000368e+00
-6.000000e+00 1.000000e+00 1.000245e+00 1.000206e+00 1.020793e-04 3.000502e+00
VARIABLES = "X", "Y", "ro", "u", "v", "e_tot" 
ZONE I=3, J=3, DATAPACKING=POINT
-7.000000e+00 1.000000e+00 9.999444e-01 9.996262e-01 3.011398e-03 3.000049e+00
-6.500000e+00 1.000000e+00 1.000197e+00 1.000390e+00 6.775106e-04 3.000349e+00
-6.000000e+00 1.000000e+00 1.000250e+00 1.000211e+00 1.416123e-04 3.000512e+00
-7.000000e+00 1.500000e+00 1.000275e+00 9.987974e-01 1.780391e-03 2.999079e+00
-6.500000e+00 1.500000e+00 1.000137e+00 9.999203e-01 4.685302e-04 3.000005e+00
-6.000000e+00 1.500000e+00 1.000294e+00 1.000030e+00 1.570680e-04 3.000349e+00
-7.000000e+00 2.000000e+00 1.000449e+00 9.999577e-01 5.908335e-04 3.000436e+00
-6.500000e+00 2.000000e+00 1.000316e+00 1.000422e+00 1.579608e-04 3.000729e+00
-6.000000e+00 2.000000e+00 1.000379e+00 1.000284e+00 1.516193e-04 3.000663e+00
VARIABLES = "X", "Y", "ro", "u", "v", "e_tot" 
ZONE I=3, J=3, DATAPACKING=POINT
-7.000000e+00 2.000000e+00 1.000316e+00 9.999442e-01 6.011460e-04 3.000289e+00
-6.500000e+00 2.000000e+00 1.000254e+00 1.000411e+00 1.893239e-04 3.000657e+00
-6.000000e+00 2.000000e+00 1.000384e+00 1.000276e+00 2.020027e-04 3.000661e+00
-7.000000e+00 2.500000e+00 1.000416e+00 1.000149e+00 5.859584e-04 3.000558e+00
-6.500000e+00 2.500000e+00 1.000311e+00 1.000264e+00 2.993118e-04 3.000575e+00
-6.000000e+00 2.500000e+00 1.000186e+00 1.000114e+00 8.200356e-05 3.000301e+00
-7.000000e+00 3.000000e+00 1.000310e+00 9.998707e-01 3.694937e-04 3.000187e+00
-6.500000e+00 3.000000e+00 1.000068e+00 9.999787e-01 -4.385688e-06 3.000046e+00
-6.000000e+00 3.000000e+00 9.999578e-01 9.999876e-01 -1.842589e-04 2.999945e+00
VARIABLES = "X", "Y", "ro", "u", "v", "e_tot" 
ZONE I=3, J=3, DATAPACKING=POINT
-7.000000e+00 3.000000e+00 1.000329e+00 9.998743e-01 3.724666e-04 3.000210e+00
-6.500000e+00 3.000000e+00 1.000035e+00 9.999823e-01 -3.143624e-05 3.000017e+00
-6.000000e+00 3.000000e+00 9.998929e-01 9.999863e-01 -2.543148e-04 2.999879e+00
-7.000000e+00 3.500000e+00 9.999030e-01 1.000101e+00 -1.302300e-04 3.000003e+00
-6.500000e+00 3.500000e+00 9.999044e-01 1.000063e+00 -1.611632e-04 2.999968e+00
-6.000000e+00 3.500000e+00 1.000190e+00 1.000236e+00 7.830582e-05 3.000426e+00
-7.000000e+00 4.000000e+00 9.996078e-01 9.994724e-01 -2.426381e-04 2.999081e+00
-6.500000e+00 4.000000e+00 1.000195e+00 1.000144e+00 1.392977e-04 3.000339e+00
-6.000000e+00 4.000000e+00 1.000463e+00 1.000399e+00 3.476590e-04 3.000862e+00
VARIABLES = "X", "Y", "ro", "u", "v", "e_tot" 
ZONE I=3, J=3, DATAPACKING=POINT
-7.000000e+00 4.000000e+00 9.995600e-01 9.994661e-01 -4.133335e-04 2.999027e+00
-6.500000e+00 4.000000e+00 1.000217e+00 1.000138e+00 1.339556e-04 3.000355e+00
-6.000000e+00 4.000000e+00 1.000520e+00 1.000400e+00 4.263237e-04 3.000920e+00
-7.000000e+00 4.500000e+00 1.000343e+00 1.000453e+00 2.235647e-04 3.000796e+00
-6.500000e+00 4.500000e+00 1.000439e+00 1.000460e+00 3.051334e-04 3.000899e+00
-6.000000e+00 4.500000e+00 1.000043e+00 1.000102e+00 -3.115052e-05 3.000145e+00
-7.000000e+00 5.000000e+00 1.000527e+00 1.000317e+00 5.479276e-04 3.000844e+00
-6.500000e+00 5.000000e+00 9.999742e-01 9.999144e-01 1.893052e-05 2.999889e+00
-6.000000e+00 5.000000e+00 9.995782e-01 9.996421e-01 -3.645388e-04 2.999220e+00
VARIABLES = "X", "Y", "ro", "u", "v", "e_tot" 
ZONE I=3, J=3, DATAPACKING=POINT
-7.000000e+00 5.000000e+00 1.000607e+00 1.000330e+00 5.854962e-04 3.000937e+00
-6.500000e+00 5.000000e+00 9.999651e-01 9.999209e-01 -4.265940e-05 2.999886e+00
-6.000000e+00 5.000000e+00 9.995387e-01 9.996405e-01 -4.474276e-04 2.999179e+00
-7.000000e+00 5.500000e+00 9.999532e-01 1.000030e+00 -1.044498e-04 2.999983e+00
-6.500000e+00 5.500000e+00 9.997137e-01 9.998171e-01 -2.811503e-04 2.999531e+00
-6.000000e+00 5.500000e+00 9.998487e-01 9.998824e-01 -1.247374e-04 2.999731e+00
-7.000000e+00 6.000000e+00 9.996231e-01 9.996658e-01 -3.041252e-04 2.999289e+00
-6.500000e+00 6.000000e+00 9.999196e-01 9.999092e-01 -5.563310e-05 2.999829e+00
-6.000000e+00 6.000000e+00 1.000158e+00 1.000096e+00 1.625872e-04 3.000254e+00
VARIABLES = "X", "Y", "ro", "u", "v", "e_tot" 
ZONE I=3, J=3, DATAPACKING=POINT
-7.000000e+00 6.000000e+00 9.996008e-01 9.996617e-01 -3.702884e-04 2.999263e+00
-6.500000e+00 6.000000e+00 9.999344e-01 9.999081e-01 -5.056236e-05 2.999842e+00
-6.000000e+00 6.000000e+00 1.000178e+00 1.000098e+00 1.863701e-04 3.000277e+00
-7.000000e+00 6.500000e+00 1.000009e+00 1.000022e+00 4.246361e-05 3.000030e+00
-6.500000e+00 6.500000e+00 1.000143e+00 1.000110e+00 1.505233e-04 3.000254e+00
-6.000000e+00 6.500000e+00 1.000111e+00 1.000085e+00 1.041230e-04 3.000196e+00
-7.000000e+00 7.000000e+00 1.000226e+00 1.000119e+00 1.938640e-04 3.000345e+00
-6.500000e+00 7.000000e+00 1.000067e+00 1.000015e+00 1.086314e-04 3.000082e+00
-6.000000e+00 7.000000e+00 9.999594e-01 9.999505e-01 2.982490e-06 2.999910e+00
VARIABLES = "X", "Y", "ro", "u", "v", "e_tot" 
ZONE I=3, J=3, DATAPACKING=POINT
-7.000000e+00 7.000000e+00 1.000253e+00 1.000122e+00 2.083951e-04 3.000375e+00
-6.500000e+00 7.000000e+00 1.000076e+00 1.000017e+00 9.551615e-05 3.000093e+00
-6.000000e+00 7.000000e+00 9.999587e-01 9.999512e-01 -1.071986e-05 2.999910e+00
-7.000000e+00 7.500000e+00 1.000051e+00 1.000030e+00 -4.553396e-06 3.000082e+00
-6.500000e+00 7.500000e+00 9.999837e-01 9.999841e-01 -6.993724e-05 2.999968e+00
-6.000000e+00 7.500000e+00 9.999583e-01 9.999687e-01 -5.253268e-05 2.999927e+00
-7.000000e+00 8.000000e+00 9.997962e-01 9.998799e-01 3.044190e-05 2.999676e+00
-6.500000e+00 8.000000e+00 9.999419e-01 9.999744e-01 -3.838964e-05 2.999916e+00
-6.000000e+00 8.000000e+00 1.000021e+00 1.000021e+00 -4.176835e-05 3.000042e+00
VARIABLES = "X", "Y", "ro", "u", "v", "e_tot" 
ZONE I=3, J=3, DATAPACKING=POINT
-6.000000e+00 -8.000000e+00 1.000026e+00 1.000026e+00 -3.209479e-05 3.000052e+00
-5.500000e+00 -8.000000e+00 1.000016e+00 1.000011e+00 -2.958463e-06 3.000028e+00
-5.000000e+00 -8.000000e+00 1.000000e+00 9.999990e-01 1.044796e-05 2.999999e+00
-6.000000e+00 -7.500000e+00 9.999826e-01 9.999890e-01 3.299233e-05 2.999972e+00
-5.500000e+00 -7.500000e+00 1.000013e+00 1.000011e+00 -1.752312e-06 3.000024e+00
-5.000000e+00 -7.500000e+00 1.000009e+00 1.000007e+00 -5.882320e-06 3.000015e+00
-6.000000e+00 -7.000000e+00 9.999577e-01 9.999699e-01 4.584596e-05 2.999928e+00
-5.500000e+00 -7.000000e+00 9.999678e-01 9.999829e-01 3.334764e-05 2.999951e+00
-5.000000e+00 -7.000000e+00 1.000009e+00 1.000010e+00 -5.534166e-06 3.000019e+00
VARIABLES = "X", "Y", "ro", "u", "v", "e_tot" 
ZONE I=3, J=3, DATAPACKING=POINT
-6.000000e+00 -7.000000e+00 9.999758e-01 9.999719e-01 1.960425e-05 2.999948e+00
-5.500000e+00 -7.000000e+00 9.999716e-01 9.999839e-01 3.076856e-05 2.999956e+00
-5.000000e+00 -7.000000e+00 1.000007e+00 1.000010e+00 1.345748e-06 3.000016e+00
-6.000000e+00 -6.500000e+00 1.000189e+00 1.000134e+00 -1.822943e-04 3.000323e+00
-5.500000e+00 -6.500000e+00 1.000040e+00 1.000027e+00 -3.918035e-05 3.000066e+00
-5.000000e+00 -6.500000e+00 9.999813e-01 9.999876e-01 1.998569e-05 2.999969e+00
-6.000000e+00 -6.000000e+00 1.000208e+00 1.000207e+00 -1.811086e-04 3.000416e+00
-5.500000e+00 -6.000000e+00 1.000205e+00 1.000172e+00 -1.833517e-04 3.000377e+00
-5.000000e+00 -6.000000e+00 1.000048e+00 1.000049e+00 -3.547983e-05 3.000097e+00
VARIABLES = "X", "Y", "ro", "u", "v", "e_tot" 
ZONE I=3, J=3, DATAPACKING=POINT
-6.000000e+00 -6.000000e+00 1.000176e+00 1.000206e+00 -1.103152e-04 3.000382e+00
-5.500000e+00 -6.000000e+00 1.000192e+00 1.000170e+00 -1.601341e-04 3.000362e+00
-5.000000e+00 -6.000000e+00 1.000054e+00 1.000048e+00 -4.834773e-05 3.000103e+00
-6.000000e+00 -5.500000e+00 9.996807e-01 9.997641e-01 2.853951e-04 2.999445e+00
-5.500000e+00 -5.500000e+00 1.000032e+00 1.000046e+00 -1.605258e-05 3.000077e+00
-5.000000e+00 -5.500000e+00 1.000159e+00 1.000140e+00 -1.302232e-04 3.000300e+00
-6.000000e+00 -5.000000e+00 9.996425e-01 9.997318e-01 3.270559e-04 2.999375e+00
-5.500000e+00 -5.000000e+00 9.996897e-01 9.997858e-01 2.967124e-04 2.999476e+00
-5.000000e+00 -5.000000e+00 1.000025e+00 1.000034e+00 -1.768932e-05 3.000059e+00
VARIABLES = "X", "Y", "ro", "u", "v", "e_tot" 
ZONE I=3, J=3, DATAPACKING=POINT
-6.000000e+00 -5.000000e+00 9.996999e-01 9.997332e-01 2.485459e-04 2.999433e+00
-5.500000e+00 -5.000000e+00 9.997188e-01 9.997905e-01 2.612677e-04 2.999509e+00
-5.000000e+00 -5.000000e+00 1.000014e+00 1.000037e+00 7.769179e-06 3.000051e+00
-6.000000e+00 -4.500000e+00 1.000362e+00 1.000238e+00 -3.455815e-04 3.000600e+00
-5.500000e+00 -4.500000e+00 9.998833e-01 9.998775e-01 8.194712e-05 2.999761e+00
-5.000000e+00 -4.500000e+00 9.997692e-01 9.998017e-01 1.916927e-04 2.999571e+00
-6.000000e+00 -4.000000e+00 1.000560e+00 1.000502e+00 -5.239205e-04 3.001064e+00
-5.500000e+00 -4.000000e+00 1.000380e+00 1.000297e+00 -3.509043e-04 3.000676e+00
-5.000000e+00 -4.000000e+00 9.998885e-01 9.999027e-01 1.031798e-04 2.999791e+00
VARIABLES = "X", "Y", "ro", "u", "v", "e_tot" 
ZONE I=3, J=3, DATAPACKING=POINT
-6.000000e+00 -4.000000e+00 1.000506e+00 1.000503e+00 -4.252012e-04 3.001012e+00
-5.500000e+00 -4.000000e+00 1.000344e+00 1.000291e+00 -3.009031e-04 3.000635e+00
-5.000000e+00 -4.000000e+00 9.999026e-01 9.998977e-01 7.366855e-05 2.999800e+00
-6.000000e+00 -3.500000e+00 9.999606e-01 9.999791e-01 -7.326994e-06 2.999938e+00
-5.500000e+00 -3.500000e+00 1.000364e+00 1.000342e+00 -2.683038e-04 3.000705e+00
-5.000000e+00 -3.500000e+00 1.000258e+00 1.000255e+00 -1.780517e-04 3.000513e+00
-6.000000e+00 -3.000000e+00 9.997583e-01 9.998226e-01 1.495478e-04 2.999594e+00
-5.500000e+00 -3.000000e+00 1.000081e+00 1.000133e+00 -1.974148e-05 3.000213e+00
-5.000000e+00 -3.000000e+00 1.000358e+00 1.000372e+00 -2.438707e-04 3.000729e+00
VARIABLES = "X", "Y", "ro", "u", "v", "e_tot" 
ZONE I=3, J=3, DATAPACKING=POINT
-6.000000e+00 -3.000000e+00 9.997740e-01 9.998179e-01 1.172984e-04 2.999605e+00
-5.500000e+00 -3.000000e+00 1.000097e+00 1.000136e+00 -4.543945e-05 3.000233e+00
-5.000000e+00 -3.000000e+00 1.000341e+00 1.000376e+00 -2.227924e-04 3.000716e+00
-6.000000e+00 -2.500000e+00 9.998460e-01 9.999367e-01 9.584138e-05 2.999770e+00