VARIABLES = "X", "Y", "ro", "u", "v", "e_tot" 
ZONE I=2, J=2, DATAPACKING=POINT
-1.594144e+00 1.000000e-15 1.000000e+00 1.418787e-01 0.000000e+00 2.510065e+00
-1.061330e+00 4.796266e-08 1.000000e+00 1.418787e-01 0.000000e+00 2.510065e+00
-1.594144e+00 1.875000e-01 1.000000e+00 1.418787e-01 0.000000e+00 2.510065e+00
-1.062763e+00 1.875000e-01 1.000000e+00 1.418787e-01 0.000000e+00 2.510065e+00
VARIABLES = "X", "Y", "ro", "u", "v", "e_tot" 
ZONE I=2, J=2, DATAPACKING=POINT
-1.061330e+00 4.796266e-08 1.000000e+00 1.418787e-01 0.000000e+00 2.510065e+00
-5.285278e-01 1.902932e-03 1.000000e+00 1.418787e-01 0.000000e+00 2.510065e+00
-1.062763e+00 1.875000e-01 1.000000e+00 1.418787e-01 0.000000e+00 2.510065e+00
-5.313813e-01 1.875000e-01 1.000000e+00 1.418787e-01 0.000000e+00 2.510065e+00
VARIABLES = "X", "Y", "ro", "u", "v", "e_tot" 
ZONE I=2, J=2, DATAPACKING=POINT
-5.285278e-01 1.902932e-03 1.000000e+00 1.418787e-01 0.000000e+00 2.510065e+00
0.000000e+00 6.250000e-02 1.000000e+00 1.418787e-01 0.000000e+00 2.510065e+00
-5.313813e-01 1.875000e-01 1.000000e+00 1.418787e-01 0.000000e+00 2.510065e+00
0.000000e+00 1.875000e-01 1.000000e+00 1.418787e-01 0.000000e+00 2.510065e+00
VARIABLES = "X", "Y", "ro", "u", "v", "e_tot" 
ZONE I=2, J=2, DATAPACKING=POINT
0.000000e+00 6.250000e-02 1.000000e+00 1.418787e-01 0.000000e+00 2.510065e+00
5.285278e-01 1.902932e-03 1.000000e+00 1.418787e-01 0.000000e+00 2.510065e+00
0.000000e+00 1.875000e-01 1.000000e+00 1.418787e-01 0.000000e+00 2.510065e+00
5.313813e-01 1.875000e-01 1.000000e+00 1.418787e-01 0.000000e+00 2.510065e+00
VARIABLES = "X", "Y", "ro", "u", "v", "e_tot" 
ZONE I=2, J=2, DATAPACKING=POINT
5.285278e-01 1.902932e-03 1.000000e+00 1.418787e-01 0.000000e+00 2.510065e+00
1.061330e+00 4.796266e-08 1.000000e+00 1.418787e-01 0.000000e+00 2.510065e+00
5.313813e-01 1.875000e-01 1.000000e+00 1.418787e-01 0.000000e+00 2.510065e+00
1.062763e+00 1.875000e-01 1.000000e+00 1.418787e-01 0.000000e+00 2.510065e+00
VARIABLES = "X", "Y", "ro", "u", "v", "e_tot" 
ZONE I=2, J=2, DATAPACKING=POINT
1.061330e+00 4.796266e-08 1.000000e+00 1.418787e-01 0.000000e+00 2.510065e+00
1.594144e+00 1.000000e-15 1.000000e+00 1.418787e-01 0.000000e+00 2.510065e+00
1.062763e+00 1.875000e-01 1.000000e+00 1.418787e-01 0.000000e+00 2.510065e+00
1.594144e+00 1.875000e-01 1.000000e+00 1.418787e-01 0.000000e+00 2.510065e+00
