VARIABLES = "X", "Y", "ro", "u", "v", "e_tot" 
ZONE I=3, J=3, DATAPACKING=POINT
-8.000000e+00 -8.000000e+00 1.000000e+00 1.000000e+00 3.357789e-11 3.000000e+00
-7.500000e+00 -7.846927e+00 1.000000e+00 1.000000e+00 -3.490288e-11 3.000000e+00
-7.000000e+00 -7.717157e+00 1.000000e+00 1.000000e+00 -1.256714e-10 3.000000e+00
-7.846927e+00 -7.500000e+00 1.000000e+00 1.000000e+00 1.496027e-10 3.000000e+00
-7.346927e+00 -7.346927e+00 1.000000e+00 1.000000e+00 1.230914e-10 3.000000e+00
-6.846927e+00 -7.217157e+00 1.000000e+00 1.000000e+00 -2.005914e-11 3.000000e+00
-7.717157e+00 -7.000000e+00 1.000000e+00 1.000000e+00 -1.897360e-09 3.000000e+00
-7.217157e+00 -6.846927e+00 1.000000e+00 1.000000e+00 9.194333e-11 3.000000e+00
-6.717157e+00 -6.717157e+00 1.000000e+00 1.000000e+00 2.248672e-10 3.000000e+00
VARIABLES = "X", "Y", "ro", "u", "v", "e_tot" 
ZONE I=3, J=3, DATAPACKING=POINT
-7.717157e+00 -7.000000e+00 1.000000e+00 1.000000e+00 -2.060351e-09 3.000000e+00
-7.217157e+00 -6.846927e+00 1.000000e+00 1.000000e+00 -4.096218e-11 3.000000e+00
-6.717157e+00 -6.717157e+00 1.000000e+00 1.000000e+00 1.404861e-10 3.000000e+00
-7.630448e+00 -6.500000e+00 1.000000e+00 1.000000e+00 1.910755e-09 3.000000e+00
-7.130448e+00 -6.346927e+00 1.000000e+00 1.000000e+00 -2.798696e-10 3.000000e+00
-6.630448e+00 -6.217157e+00 1.000000e+00 1.000000e+00 -1.234885e-10 3.000000e+00
-7.600000e+00 -6.000000e+00 1.000000e+00 1.000000e+00 -3.652587e-09 3.000000e+00
-7.100000e+00 -5.846927e+00 1.000000e+00 1.000000e+00 1.589414e-09 3.000000e+00
-6.600000e+00 -5.717157e+00 1.000000e+00 1.000000e+00 -8.006513e-10 3.000000e+00
VARIABLES = "X", "Y", "ro", "u", "v", "e_tot" 
ZONE I=3, J=3, DATAPACKING=POINT
-7.600000e+00 -6.000000e+00 1.000000e+00 1.000000e+00 -7.686687e-09 3.000000e+00
-7.100000e+00 -5.846927e+00 1.000000e+00 1.000000e+00 1.521411e-09 3.000000e+00
-6.600000e+00 -5.717157e+00 1.000000e+00 1.000000e+00 -3.171836e-10 3.000000e+00
-7.630448e+00 -5.500000e+00 1.000000e+00 1.000000e+00 2.845183e-09 3.000000e+00
-7.130448e+00 -5.346927e+00 1.000000e+00 1.000000e+00 -4.170033e-10 3.000000e+00
-6.630448e+00 -5.217157e+00 1.000000e+00 1.000000e+00 -1.449997e-09 3.000000e+00
-7.717157e+00 -5.000000e+00 1.000000e+00 1.000000e+00 -2.801321e-09 3.000000e+00
-7.217157e+00 -4.846927e+00 1.000000e+00 1.000000e+00 6.188581e-09 3.000000e+00
-6.717157e+00 -4.717157e+00 1.000000e+00 1.000000e+00 -1.170970e-08 3.000000e+00
VARIABLES = "X", "Y", "ro", "u", "v", "e_tot" 
ZONE I=3, J=3, DATAPACKING=POINT
-7.717157e+00 -5.000000e+00 1.000000e+00 1.000000e+00 -1.928930e-08 3.000000e+00
-7.217157e+00 -4.846927e+00 1.000000e+00 1.000000e+00 9.776818e-09 3.000000e+00
-6.717157e+00 -4.717157e+00 1.000000e+00 1.000000e+00 -1.155257e-08 3.000000e+00
-7.846927e+00 -4.500000e+00 1.000000e+00 1.000000e+00 -1.343932e-08 3.000000e+00
-7.346927e+00 -4.346927e+00 1.000000e+00 1.000000e+00 7.633749e-09 3.000000e+00
-6.846927e+00 -4.217157e+00 1.000000e+00 1.000000e+00 -3.514925e-08 3.000000e+00
-8.000000e+00 -4.000000e+00 9.999997e-01 9.999999e-01 7.951625e-08 3.000000e+00
-7.500000e+00 -3.846927e+00 1.000000e+00 1.000000e+00 2.128334e-08 3.000000e+00
-7.000000e+00 -3.717157e+00 1.000000e+00 1.000000e+00 -1.419096e-07 3.000000e+00
VARIABLES = "X", "Y", "ro", "u", "v", "e_tot" 
ZONE I=3, J=3, DATAPACKING=POINT
-8.000000e+00 -4.000000e+00 9.999996e-01 1.000000e+00 8.015138e-08 3.000000e+00
-7.500000e+00 -3.846927e+00 1.000000e+00 1.000000e+00 4.492688e-08 3.000000e+00
-7.000000e+00 -3.717157e+00 1.000000e+00 1.000000e+00 -1.615130e-07 3.000000e+00
-8.153073e+00 -3.500000e+00 9.999995e-01 1.000000e+00 -3.515807e-07 3.000000e+00
-7.653073e+00 -3.346927e+00 1.000000e+00 1.000000e+00 2.713291e-08 3.000000e+00
-7.153073e+00 -3.217157e+00 1.000000e+00 1.000000e+00 -2.468543e-07 3.000000e+00
-8.282843e+00 -3.000000e+00 9.999952e-01 9.999970e-01 7.296435e-07 2.999992e+00
-7.782843e+00 -2.846927e+00 1.000001e+00 1.000001e+00 -8.265934e-07 3.000002e+00
-7.282843e+00 -2.717157e+00 1.000000e+00 1.000001e+00 -4.972999e-08 3.000001e+00
VARIABLES = "X", "Y", "ro", "u", "v", "e_tot" 
ZONE I=3, J=3, DATAPACKING=POINT
-8.282843e+00 -3.000000e+00 9.999944e-01 9.999964e-01 1.784097e-06 2.999991e+00
-7.782843e+00 -2.846927e+00 1.000001e+00 1.000001e+00 -8.295442e-07 3.000002e+00
-7.282843e+00 -2.717157e+00 1.000000e+00 1.000001e+00 -3.654478e-07 3.000001e+00
-8.369552e+00 -2.500000e+00 9.999867e-01 9.999911e-01 6.315816e-06 2.999978e+00
-7.869552e+00 -2.346927e+00 9.999976e-01 9.999960e-01 1.231893e-07 2.999994e+00
-7.369552e+00 -2.217157e+00 1.000006e+00 1.000007e+00 -3.147160e-06 3.000014e+00
-8.400000e+00 -2.000000e+00 9.999958e-01 1.000005e+00 2.800195e-06 3.000002e+00
-7.900000e+00 -1.846927e+00 9.999893e-01 9.999869e-01 5.031446e-06 2.999976e+00
-7.400000e+00 -1.717157e+00 1.000011e+00 1.000010e+00 -7.354859e-06 3.000022e+00
VARIABLES = "X", "Y", "ro", "u", "v", "e_tot" 
ZONE I=3, J=3, DATAPACKING=POINT
-8.400000e+00 -2.000000e+00 9.999969e-01 1.000005e+00 1.217240e-06 3.000003e+00
-7.900000e+00 -1.846927e+00 9.999899e-01 9.999874e-01 4.320392e-06 2.999977e+00
-7.400000e+00 -1.717157e+00 1.000010e+00 1.000010e+00 -6.133993e-06 3.000020e+00
-8.369552e+00 -1.500000e+00 1.000009e+00 1.000020e+00 -1.067282e-05 3.000031e+00
-7.869552e+00 -1.346927e+00 9.999932e-01 9.999917e-01 5.768187e-06 2.999984e+00
-7.369552e+00 -1.217157e+00 1.000003e+00 9.999994e-01 -6.072543e-06 3.000004e+00
-8.282843e+00 -1.000000e+00 1.000001e+00 1.000009e+00 -1.618042e-05 3.000015e+00
-7.782843e+00 -8.469266e-01 1.000004e+00 1.000005e+00 3.767418e-06 3.000008e+00
-7.282843e+00 -7.171573e-01 9.999973e-01 9.999889e-01 -7.064367e-06 2.999990e+00
VARIABLES = "X", "Y", "ro", "u", "v", "e_tot" 
ZONE I=3, J=3, DATAPACKING=POINT
-8.282843e+00 -1.000000e+00 1.000001e+00 1.000009e+00 -1.607679e-05 3.000014e+00
-7.782843e+00 -8.469266e-01 1.000004e+00 1.000005e+00 4.663876e-06 3.000007e+00
-7.282843e+00 -7.171573e-01 9.999977e-01 9.999892e-01 -8.008648e-06 2.999991e+00
-8.153073e+00 -5.000000e-01 9.999921e-01 9.999907e-01 -1.511959e-05 2.999993e+00
-7.653073e+00 -3.469266e-01 1.000009e+00 1.000014e+00 6.349090e-06 3.000018e+00
-7.153073e+00 -2.171573e-01 9.999966e-01 9.999824e-01 -1.318517e-05 2.999992e+00
-8.000000e+00 9.797174e-17 9.999959e-01 9.999817e-01 -1.722654e-05 2.999983e+00
-7.500000e+00 1.530734e-01 1.000007e+00 1.000016e+00 1.018267e-05 3.000021e+00
-7.000000e+00 2.828427e-01 1.000002e+00 9.999784e-01 -1.857481e-05 2.999985e+00
VARIABLES = "X", "Y", "ro", "u", "v", "e_tot" 
ZONE I=3, J=3, DATAPACKING=POINT
-8.000000e+00 9.797174e-17 9.999963e-01 9.999819e-01 -1.677153e-05 2.999984e+00
-7.500000e+00 1.530734e-01 1.000007e+00 1.000016e+00 9.977761e-06 3.000021e+00
-7.000000e+00 2.828427e-01 1.000002e+00 9.999785e-01 -1.816612e-05 2.999985e+00
-7.846927e+00 5.000000e-01 9.999973e-01 9.999822e-01 -2.197672e-05 2.999985e+00
-7.346927e+00 6.530734e-01 1.000005e+00 1.000012e+00 1.335007e-05 3.000014e+00
-6.846927e+00 7.828427e-01 1.000001e+00 9.999848e-01 -2.255938e-05 2.999988e+00
-7.717157e+00 1.000000e+00 9.999945e-01 9.999838e-01 -2.456499e-05 2.999990e+00
-7.217157e+00 1.153073e+00 1.000004e+00 1.000007e+00 1.490033e-05 3.000005e+00
-6.717157e+00 1.282843e+00 9.999948e-01 9.999940e-01 -2.479391e-05 3.000001e+00
VARIABLES = "X", "Y", "ro", "u", "v", "e_tot" 
ZONE I=3, J=3, DATAPACKING=POINT
-7.717157e+00 1.000000e+00 9.999948e-01 9.999840e-01 -2.472627e-05 2.999991e+00
-7.217157e+00 1.153073e+00 1.000004e+00 1.000007e+00 1.480935e-05 3.000005e+00
-6.717157e+00 1.282843e+00 9.999948e-01 9.999940e-01 -2.477493e-05 3.000001e+00
-7.630448e+00 1.500000e+00 9.999940e-01 9.999917e-01 -2.332250e-05 2.999995e+00
-7.130448e+00 1.653073e+00 1.000004e+00 1.000002e+00 1.367942e-05 3.000001e+00
-6.630448e+00 1.782843e+00 9.999910e-01 1.000003e+00 -2.381267e-05 3.000006e+00
-7.600000e+00 2.000000e+00 9.999937e-01 9.999976e-01 -1.883821e-05 2.999995e+00
-7.100000e+00 2.153073e+00 1.000003e+00 9.999989e-01 1.092199e-05 3.000000e+00
-6.600000e+00 2.282843e+00 9.999897e-01 1.000011e+00 -2.059334e-05 3.000006e+00
VARIABLES = "X", "Y", "ro", "u", "v", "e_tot" 
ZONE I=3, J=3, DATAPACKING=POINT
-7.600000e+00 2.000000e+00 9.999937e-01 9.999977e-01 -1.921169e-05 2.999995e+00
-7.100000e+00 2.153073e+00 1.000003e+00 9.999989e-01 1.101368e-05 3.000000e+00
-6.600000e+00 2.282843e+00 9.999895e-01 1.000011e+00 -2.083601e-05 3.000006e+00
-7.630448e+00 2.500000e+00 9.999951e-01 1.000000e+00 -1.242287e-05 2.999996e+00
-7.130448e+00 2.653073e+00 1.000002e+00 9.999979e-01 7.055318e-06 3.000000e+00
-6.630448e+00 2.782843e+00 9.999912e-01 1.000012e+00 -1.397444e-05 3.000005e+00
-7.717157e+00 3.000000e+00 9.999970e-01 1.000001e+00 -5.779669e-06 2.999998e+00
-7.217157e+00 3.153073e+00 1.000001e+00 9.999985e-01 3.175998e-06 3.000000e+00
-6.717157e+00 3.282843e+00 9.999950e-01 1.000007e+00 -6.313772e-06 3.000003e+00
VARIABLES = "X", "Y", "ro", "u", "v", "e_tot" 
ZONE I=3, J=3, DATAPACKING=POINT
-7.717157e+00 3.000000e+00 9.999971e-01 1.000001e+00 -5.818929e-06 2.999998e+00
-7.217157e+00 3.153073e+00 1.000001e+00 9.999985e-01 3.200298e-06 3.000000e+00
-6.717157e+00 3.282843e+00 9.999952e-01 1.000007e+00 -6.291313e-06 3.000003e+00
-7.846927e+00 3.500000e+00 9.999988e-01 1.000000e+00 -1.964388e-06 2.999999e+00
-7.346927e+00 3.653073e+00 1.000001e+00 9.999994e-01 1.017896e-06 3.000000e+00
-6.846927e+00 3.782843e+00 9.999983e-01 1.000003e+00 -1.924488e-06 3.000001e+00
-8.000000e+00 4.000000e+00 9.999997e-01 9.999999e-01 -6.232760e-07 3.000000e+00
-7.500000e+00 4.153073e+00 1.000000e+00 9.999999e-01 2.804887e-07 3.000000e+00
-7.000000e+00 4.282843e+00 9.999997e-01 1.000000e+00 -5.194582e-07 3.000000e+00
VARIABLES = "X", "Y", "ro", "u", "v", "e_tot" 
ZONE I=3, J=3, DATAPACKING=POINT
-8.000000e+00 4.000000e+00 9.999996e-01 9.999999e-01 -5.617147e-07 3.000000e+00
-7.500000e+00 4.153073e+00 1.000000e+00 9.999999e-01 2.462439e-07 3.000000e+00
-7.000000e+00 4.282843e+00 9.999997e-01 1.000000e+00 -4.224292e-07 3.000000e+00
-8.153073e+00 4.500000e+00 9.999999e-01 1.000000e+00 -1.253553e-07 3.000000e+00
-7.653073e+00 4.653073e+00 1.000000e+00 1.000000e+00 5.148471e-08 3.000000e+00
-7.153073e+00 4.782843e+00 9.999999e-01 1.000000e+00 -8.406235e-08 3.000000e+00
-8.282843e+00 5.000000e+00 1.000000e+00 1.000000e+00 -4.625815e-08 3.000000e+00
-7.782843e+00 5.153073e+00 1.000000e+00 1.000000e+00 2.497309e-08 3.000000e+00
-7.282843e+00 5.282843e+00 1.000000e+00 1.000000e+00 -5.681187e-08 3.000000e+00
VARIABLES = "X", "Y", "ro", "u", "v", "e_tot" 
ZONE I=3, J=3, DATAPACKING=POINT
-8.282843e+00 5.000000e+00 1.000000e+00 1.000000e+00 -3.588256e-08 3.000000e+00
-7.782843e+00 5.153073e+00 1.000000e+00 1.000000e+00 1.581162e-08 3.000000e+00
-7.282843e+00 5.282843e+00 1.000000e+00 1.000000e+00 -2.886675e-08 3.000000e+00
-8.369552e+00 5.500000e+00 1.000000e+00 1.000000e+00 -2.699954e-09 3.000000e+00
-7.869552e+00 5.653073e+00 1.000000e+00 1.000000e+00 1.003697e-09 3.000000e+00
-7.369552e+00 5.782843e+00 1.000000e+00 1.000000e+00 -5.197649e-10 3.000000e+00
-8.400000e+00 6.000000e+00 1.000000e+00 1.000000e+00 -3.733058e-09 3.000000e+00
-7.900000e+00 6.153073e+00 1.000000e+00 1.000000e+00 3.222981e-09 3.000000e+00
-7.400000e+00 6.282843e+00 1.000000e+00 1.000000e+00 -9.159441e-09 3.000000e+00
VARIABLES = "X", "Y", "ro", "u", "v", "e_tot" 
ZONE I=3, J=3, DATAPACKING=POINT
-8.400000e+00 6.000000e+00 1.000000e+00 1.000000e+00 -2.271177e-09 3.000000e+00
-7.900000e+00 6.153073e+00 1.000000e+00 1.000000e+00 1.471376e-09 3.000000e+00
-7.400000e+00 6.282843e+00 1.000000e+00 1.000000e+00 -3.355014e-09 3.000000e+00
-8.369552e+00 6.500000e+00 1.000000e+00 1.000000e+00 1.427540e-10 3.000000e+00
-7.869552e+00 6.653073e+00 1.000000e+00 1.000000e+00 -2.300721e-10 3.000000e+00
-7.369552e+00 6.782843e+00 1.000000e+00 1.000000e+00 6.249145e-10 3.000000e+00
-8.282843e+00 7.000000e+00 1.000000e+00 1.000000e+00 -6.110491e-10 3.000000e+00
-7.782843e+00 7.153073e+00 1.000000e+00 1.000000e+00 5.727128e-10 3.000000e+00
-7.282843e+00 7.282843e+00 1.000000e+00 1.000000e+00 -1.593223e-09 3.000000e+00
VARIABLES = "X", "Y", "ro", "u", "v", "e_tot" 
ZONE I=3, J=3, DATAPACKING=POINT
-8.282843e+00 7.000000e+00 1.000000e+00 1.000000e+00 -1.631362e-10 3.000000e+00
-7.782843e+00 7.153073e+00 1.000000e+00 1.000000e+00 2.150872e-10 3.000000e+00
-7.282843e+00 7.282843e+00 1.000000e+00 1.000000e+00 -3.372661e-10 3.000000e+00
-8.153073e+00 7.500000e+00 1.000000e+00 1.000000e+00 -3.193080e-11 3.000000e+00
-7.653073e+00 7.653073e+00 1.000000e+00 1.000000e+00 -4.601861e-11 3.000000e+00
-7.153073e+00 7.782843e+00 1.000000e+00 1.000000e+00 1.328988e-10 3.000000e+00
-8.000000e+00 8.000000e+00 1.000000e+00 1.000000e+00 -1.136005e-10 3.000000e+00
-7.500000e+00 8.153073e+00 1.000000e+00 1.000000e+00 -8.018586e-12 3.000000e+00
-7.000000e+00 8.282843e+00 1.000000e+00 1.000000e+00 -3.341477e-10 3.000000e+00
VARIABLES = "X", "Y", "ro", "u", "v", "e_tot" 
ZONE I=3, J=3, DATAPACKING=POINT
-7.000000e+00 -7.717157e+00 1.000000e+00 1.000000e+00 -3.739324e-10 3.000000e+00
-6.500000e+00 -7.630448e+00 1.000000e+00 1.000000e+00 2.276725e-10 3.000000e+00
-6.000000e+00 -7.600000e+00 1.000000e+00 1.000000e+00 -5.777033e-10 3.000000e+00
-6.846927e+00 -7.217157e+00 1.000000e+00 1.000000e+00 3.219631e-11 3.000000e+00
-6.346927e+00 -7.130448e+00 1.000000e+00 1.000000e+00 -9.779741e-11 3.000000e+00
-5.846927e+00 -7.100000e+00 1.000000e+00 1.000000e+00 4.203859e-10 3.000000e+00
-6.717157e+00 -6.717157e+00 1.000000e+00 1.000000e+00 -1.849955e-10 3.000000e+00
-6.217157e+00 -6.630448e+00 1.000000e+00 1.000000e+00 6.869282e-11 3.000000e+00
-5.717157e+00 -6.600000e+00 1.000000e+00 1.000000e+00 -6.175551e-10 3.000000e+00
VARIABLES = "X", "Y", "ro", "u", "v", "e_tot" 
ZONE I=3, J=3, DATAPACKING=POINT
-6.717157e+00 -6.717157e+00 1.000000e+00 1.000000e+00 -3.950531e-10 3.000000e+00
-6.217157e+00 -6.630448e+00 1.000000e+00 1.000000e+00 2.770871e-10 3.000000e+00
-5.717157e+00 -6.600000e+00 1.000000e+00 1.000000e+00 -1.742090e-09 3.000000e+00
-6.630448e+00 -6.217157e+00 1.000000e+00 1.000000e+00 3.012473e-10 3.000000e+00
-6.130448e+00 -6.130448e+00 1.000000e+00 1.000000e+00 -1.683945e-11 3.000000e+00
-5.630448e+00 -6.100000e+00 1.000000e+00 1.000000e+00 5.992247e-10 3.000000e+00
-6.600000e+00 -5.717157e+00 1.000000e+00 1.000000e+00 -2.644949e-09 3.000000e+00
-6.100000e+00 -5.630448e+00 1.000000e+00 1.000000e+00 6.119096e-10 3.000000e+00
-5.600000e+00 -5.600000e+00 1.000000e+00 1.000000e+00 -1.571199e-09 3.000000e+00
VARIABLES = "X", "Y", "ro", "u", "v", "e_tot" 
ZONE I=3, J=3, DATAPACKING=POINT
-6.600000e+00 -5.717157e+00 1.000000e+00 1.000000e+00 -3.285868e-09 3.000000e+00
-6.100000e+00 -5.630448e+00 1.000000e+00 1.000000e+00 1.034354e-09 3.000000e+00
-5.600000e+00 -5.600000e+00 1.000000e+00 1.000000e+00 -4.820091e-09 3.000000e+00
-6.630448e+00 -5.217157e+00 1.000000e+00 1.000000e+00 -1.686372e-09 3.000000e+00
-6.130448e+00 -5.130448e+00 1.000000e+00 1.000000e+00 1.588227e-09 3.000000e+00
-5.630448e+00 -5.100000e+00 1.000000e+00 1.000000e+00 -3.465934e-09 3.000000e+00
-6.717157e+00 -4.717157e+00 1.000000e+00 1.000000e+00 -2.561464e-08 3.000000e+00
-6.217157e+00 -4.630448e+00 1.000000e+00 1.000000e+00 1.289645e-08 3.000000e+00
-5.717157e+00 -4.600000e+00 1.000000e+00 1.000000e+00 -3.272469e-08 3.000000e+00
VARIABLES = "X", "Y", "ro", "u", "v", "e_tot" 
ZONE I=3, J=3, DATAPACKING=POINT
-6.717157e+00 -4.717157e+00 1.000000e+00 1.000000e+00 -3.012347e-08 3.000000e+00
-6.217157e+00 -4.630448e+00 1.000000e+00 1.000000e+00 1.334273e-08 3.000000e+00
-5.717157e+00 -4.600000e+00 1.000000e+00 1.000000e+00 -3.726869e-08 3.000000e+00
-6.846927e+00 -4.217157e+00 1.000000e+00 1.000000e+00 -7.359335e-08 3.000000e+00
-6.346927e+00 -4.130448e+00 1.000000e+00 1.000000e+00 4.721698e-08 3.000000e+00
-5.846927e+00 -4.100000e+00 1.000000e+00 9.999999e-01 -1.276981e-07 3.000000e+00
-7.000000e+00 -3.717157e+00 1.000000e+00 1.000000e+00 -3.022641e-07 3.000000e+00
-6.500000e+00 -3.630448e+00 9.999999e-01 1.000000e+00 1.942905e-07 3.000000e+00
-6.000000e+00 -3.600000e+00 1.000000e+00 9.999999e-01 -5.100373e-07 3.000000e+00
VARIABLES = "X", "Y", "ro", "u", "v", "e_tot" 
ZONE I=3, J=3, DATAPACKING=POINT
-7.000000e+00 -3.717157e+00 1.000000e+00 1.000000e+00 -3.350363e-07 3.000000e+00
-6.500000e+00 -3.630448e+00 9.999999e-01 1.000000e+00 2.001637e-07 3.000000e+00
-6.000000e+00 -3.600000e+00 1.000000e+00 9.999999e-01 -5.203519e-07 3.000000e+00
-7.153073e+00 -3.217157e+00 1.000000e+00 1.000000e+00 -7.768901e-07 3.000000e+00
-6.653073e+00 -3.130448e+00 9.999998e-01 9.999999e-01 5.221337e-07 3.000000e+00
-6.153073e+00 -3.100000e+00 1.000001e+00 9.999997e-01 -1.420243e-06 3.000000e+00
-7.282843e+00 -2.717157e+00 9.999995e-01 1.000000e+00 -1.091585e-06 3.000000e+00
-6.782843e+00 -2.630448e+00 9.999994e-01 9.999994e-01 1.244301e-06 2.999999e+00
-6.282843e+00 -2.600000e+00 1.000002e+00 9.999996e-01 -3.167944e-06 3.000002e+00
VARIABLES = "X", "Y", "ro", "u", "v", "e_tot" 
ZONE I=3, J=3, DATAPACKING=POINT
-7.282843e+00 -2.717157e+00 9.999995e-01 1.000000e+00 -1.347690e-06 3.000000e+00
-6.782843e+00 -2.630448e+00 9.999993e-01 9.999994e-01 1.410986e-06 2.999998e+00
-6.282843e+00 -2.600000e+00 1.000002e+00 9.999996e-01 -3.308425e-06 3.000002e+00
-7.369552e+00 -2.217157e+00 1.000006e+00 1.000007e+00 -5.428810e-06 3.000013e+00
-6.869552e+00 -2.130448e+00 9.999974e-01 9.999982e-01 3.434491e-06 2.999996e+00
-6.369552e+00 -2.100000e+00 1.000004e+00 9.999976e-01 -6.601186e-06 3.000002e+00
-7.400000e+00 -1.717157e+00 1.000014e+00 1.000014e+00 -1.364961e-05 3.000030e+00
-6.900000e+00 -1.630448e+00 9.999975e-01 9.999996e-01 5.636421e-06 2.999996e+00
-6.400000e+00 -1.600000e+00 1.000004e+00 9.999917e-01 -9.364655e-06 2.999998e+00
VARIABLES = "X", "Y", "ro", "u", "v", "e_tot" 
ZONE I=3, J=3, DATAPACKING=POINT
-7.400000e+00 -1.717157e+00 1.000013e+00 1.000013e+00 -1.243061e-05 3.000029e+00
-6.900000e+00 -1.630448e+00 9.999977e-01 9.999997e-01 5.332058e-06 2.999996e+00
-6.400000e+00 -1.600000e+00 1.000003e+00 9.999917e-01 -9.265049e-06 2.999998e+00
-7.369552e+00 -1.217157e+00 1.000006e+00 1.000003e+00 -1.689989e-05 3.000014e+00
-6.869552e+00 -1.130448e+00 9.999995e-01 1.000004e+00 7.247947e-06 3.000000e+00
-6.369552e+00 -1.100000e+00 1.000005e+00 9.999860e-01 -1.175906e-05 2.999998e+00
-7.282843e+00 -7.171573e-01 9.999940e-01 9.999842e-01 -2.183295e-05 2.999988e+00
-6.782843e+00 -6.304482e-01 9.999992e-01 1.000007e+00 1.089452e-05 3.000001e+00
-6.282843e+00 -6.000000e-01 1.000010e+00 9.999829e-01 -1.448353e-05 3.000000e+00
VARIABLES = "X", "Y", "ro", "u", "v", "e_tot" 
ZONE I=3, J=3, DATAPACKING=POINT
-7.282843e+00 -7.171573e-01 9.999946e-01 9.999847e-01 -2.313095e-05 2.999989e+00
-6.782843e+00 -6.304482e-01 9.999992e-01 1.000007e+00 1.107129e-05 3.000001e+00
-6.282843e+00 -6.000000e-01 1.000010e+00 9.999829e-01 -1.460209e-05 3.000000e+00
-7.153073e+00 -2.171573e-01 9.999870e-01 9.999740e-01 -3.441536e-05 2.999994e+00
-6.653073e+00 -1.304482e-01 1.000001e+00 1.000010e+00 1.581974e-05 2.999993e+00
-6.153073e+00 -1.000000e-01 1.000007e+00 9.999767e-01 -1.526524e-05 3.000022e+00
-7.000000e+00 2.828427e-01 9.999953e-01 9.999685e-01 -4.774147e-05 2.999978e+00
-6.500000e+00 3.695518e-01 9.999976e-01 1.000012e+00 2.068975e-05 3.000002e+00
-6.000000e+00 4.000000e-01 1.000016e+00 9.999692e-01 -1.549793e-05 3.000005e+00
VARIABLES = "X", "Y", "ro", "u", "v", "e_tot" 
ZONE I=3, J=3, DATAPACKING=POINT
-7.000000e+00 2.828427e-01 9.999952e-01 9.999686e-01 -4.709597e-05 2.999978e+00
-6.500000e+00 3.695518e-01 9.999975e-01 1.000012e+00 2.042989e-05 3.000002e+00
-6.000000e+00 4.000000e-01 1.000016e+00 9.999692e-01 -1.496559e-05 3.000005e+00
-6.846927e+00 7.828427e-01 9.999972e-01 9.999751e-01 -5.678055e-05 2.999977e+00
-6.346927e+00 8.695518e-01 9.999977e-01 1.000010e+00 2.436898e-05 3.000007e+00
-5.846927e+00 9.000000e-01 1.000019e+00 9.999768e-01 -1.617836e-05 2.999985e+00
-6.717157e+00 1.282843e+00 9.999883e-01 9.999849e-01 -5.995585e-05 3.000002e+00
-6.217157e+00 1.369552e+00 1.000005e+00 1.000004e+00 2.601802e-05 2.999996e+00
-5.717157e+00 1.400000e+00 9.999970e-01 9.999955e-01 -1.782987e-05 3.000007e+00
VARIABLES = "X", "Y", "ro", "u", "v", "e_tot" 
ZONE I=3, J=3, DATAPACKING=POINT
-6.717157e+00 1.282843e+00 9.999884e-01 9.999850e-01 -6.004093e-05 3.000001e+00
-6.217157e+00 1.369552e+00 1.000005e+00 1.000004e+00 2.613520e-05 2.999996e+00
-5.717157e+00 1.400000e+00 9.999974e-01 9.999955e-01 -1.774396e-05 3.000007e+00
-6.630448e+00 1.782843e+00 9.999864e-01 9.999968e-01 -5.721118e-05 3.000012e+00
-6.130448e+00 1.869552e+00 1.000007e+00 9.999984e-01 2.598113e-05 2.999990e+00
-5.630448e+00 1.900000e+00 9.999781e-01 1.000017e+00 -2.371374e-05 3.000020e+00
-6.600000e+00 2.282843e+00 9.999883e-01 1.000007e+00 -5.043495e-05 3.000009e+00
-6.100000e+00 2.369552e+00 1.000008e+00 9.999924e-01 2.451122e-05 2.999992e+00
-5.600000e+00 2.400000e+00 9.999679e-01 1.000037e+00 -3.099346e-05 3.000019e+00
VARIABLES = "X", "Y", "ro", "u", "v", "e_tot" 
ZONE I=3, J=3, DATAPACKING=POINT
-6.600000e+00 2.282843e+00 9.999878e-01 1.000007e+00 -5.074690e-05 3.000008e+00
-6.100000e+00 2.369552e+00 1.000008e+00 9.999924e-01 2.469683e-05 2.999993e+00
-5.600000e+00 2.400000e+00 9.999671e-01 1.000038e+00 -3.213192e-05 3.000019e+00
-6.630448e+00 2.782843e+00 9.999897e-01 1.000010e+00 -3.515442e-05 3.000004e+00
-6.130448e+00 2.869552e+00 1.000007e+00 9.999909e-01 1.783322e-05 2.999996e+00
-5.630448e+00 2.900000e+00 9.999717e-01 1.000038e+00 -2.601183e-05 3.000013e+00
-6.717157e+00 3.282843e+00 9.999931e-01 1.000007e+00 -1.628419e-05 3.000000e+00
-6.217157e+00 3.369552e+00 1.000005e+00 9.999942e-01 8.352336e-06 2.999998e+00
-5.717157e+00 3.400000e+00 9.999852e-01 1.000021e+00 -1.181733e-05 3.000007e+00
VARIABLES = "X", "Y", "ro", "u", "v", "e_tot" 
ZONE I=3, J=3, DATAPACKING=POINT
-6.717157e+00 3.282843e+00 9.999935e-01 1.000007e+00 -1.635599e-05 3.000001e+00
-6.217157e+00 3.369552e+00 1.000004e+00 9.999942e-01 8.359356e-06 2.999998e+00
-5.717157e+00 3.400000e+00 9.999856e-01 1.000021e+00 -1.141986e-05 3.000007e+00
-6.846927e+00 3.782843e+00 9.999976e-01 1.000002e+00 -5.018208e-06 3.000000e+00
-6.346927e+00 3.869552e+00 1.000002e+00 9.999979e-01 2.520654e-06 2.999999e+00
-5.846927e+00 3.900000e+00 9.999955e-01 1.000007e+00 -2.818795e-06 3.000002e+00
-7.000000e+00 4.282843e+00 9.999996e-01 1.000000e+00 -1.244803e-06 3.000000e+00
-6.500000e+00 4.369552e+00 1.000000e+00 9.999996e-01 6.099791e-07 3.000000e+00
-6.000000e+00 4.400000e+00 9.999994e-01 1.000001e+00 -5.155175e-07 3.000000e+00
VARIABLES = "X", "Y", "ro", "u", "v", "e_tot" 
ZONE I=3, J=3, DATAPACKING=POINT
-7.000000e+00 4.282843e+00 9.999995e-01 1.000000e+00 -1.075680e-06 3.000000e+00
-6.500000e+00 4.369552e+00 1.000000e+00 9.999996e-01 5.109518e-07 3.000000e+00
-6.000000e+00 4.400000e+00 9.999994e-01 1.000001e+00 -3.284241e-07 3.000000e+00
-7.153073e+00 4.782843e+00 9.999999e-01 1.000000e+00 -2.238879e-07 3.000000e+00
-6.653073e+00 4.869552e+00 1.000000e+00 9.999999e-01 1.057438e-07 3.000000e+00
-6.153073e+00 4.900000e+00 9.999998e-01 1.000000e+00 -5.950680e-08 3.000000e+00
-7.282843e+00 5.282843e+00 1.000000e+00 1.000000e+00 -1.090648e-07 3.000000e+00
-6.782843e+00 5.369552e+00 1.000000e+00 1.000000e+00 5.966769e-08 3.000000e+00
-6.282843e+00 5.400000e+00 1.000000e+00 1.000000e+00 -8.205093e-08 3.000000e+00
VARIABLES = "X", "Y", "ro", "u", "v", "e_tot" 
ZONE I=3, J=3, DATAPACKING=POINT
-7.282843e+00 5.282843e+00 1.000000e+00 1.000000e+00 -6.978072e-08 3.000000e+00
-6.782843e+00 5.369552e+00 1.000000e+00 1.000000e+00 3.475443e-08 3.000000e+00
-6.282843e+00 5.400000e+00 1.000000e+00 1.000000e+00 -3.226461e-08 3.000000e+00
-7.369552e+00 5.782843e+00 1.000000e+00 1.000000e+00 -2.597440e-09 3.000000e+00
-6.869552e+00 5.869552e+00 1.000000e+00 1.000000e+00 6.548440e-10 3.000000e+00
-6.369552e+00 5.900000e+00 1.000000e+00 1.000000e+00 4.590019e-09 3.000000e+00
-7.400000e+00 6.282843e+00 1.000000e+00 1.000000e+00 -1.619116e-08 3.000000e+00
-6.900000e+00 6.369552e+00 1.000000e+00 1.000000e+00 9.900312e-09 3.000000e+00
-6.400000e+00 6.400000e+00 1.000000e+00 1.000000e+00 -2.104246e-08 3.000000e+00
VARIABLES = "X", "Y", "ro", "u", "v", "e_tot" 
ZONE I=3, J=3, DATAPACKING=POINT
-7.400000e+00 6.282843e+00 1.000000e+00 1.000000e+00 -8.921301e-09 3.000000e+00
-6.900000e+00 6.369552e+00 1.000000e+00 1.000000e+00 4.885314e-09 3.000000e+00
-6.400000e+00 6.400000e+00 1.000000e+00 1.000000e+00 -8.811316e-09 3.000000e+00
-7.369552e+00 6.782843e+00 1.000000e+00 1.000000e+00 1.284533e-09 3.000000e+00
-6.869552e+00 6.869552e+00 1.000000e+00 1.000000e+00 -7.626518e-10 3.000000e+00
-6.369552e+00 6.900000e+00 1.000000e+00 1.000000e+00 1.865851e-09 3.000000e+00
-7.282843e+00 7.282843e+00 1.000000e+00 1.000000e+00 -2.965624e-09 3.000000e+00
-6.782843e+00 7.369552e+00 1.000000e+00 1.000000e+00 1.785265e-09 3.000000e+00
-6.282843e+00 7.400000e+00 1.000000e+00 1.000000e+00 -4.133120e-09 3.000000e+00
VARIABLES = "X", "Y", "ro", "u", "v", "e_tot" 
ZONE I=3, J=3, DATAPACKING=POINT
-7.282843e+00 7.282843e+00 1.000000e+00 1.000000e+00 -1.307990e-09 3.000000e+00
-6.782843e+00 7.369552e+00 1.000000e+00 1.000000e+00 6.278660e-10 3.000000e+00
-6.282843e+00 7.400000e+00 1.000000e+00 1.000000e+00 -8.709005e-10 3.000000e+00
-7.153073e+00 7.782843e+00 1.000000e+00 1.000000e+00 3.063172e-10 3.000000e+00
-6.653073e+00 7.869552e+00 1.000000e+00 1.000000e+00 -1.662437e-10 3.000000e+00
-6.153073e+00 7.900000e+00 1.000000e+00 1.000000e+00 3.428326e-10 3.000000e+00
-7.000000e+00 8.282843e+00 1.000000e+00 1.000000e+00 -6.560529e-10 3.000000e+00
-6.500000e+00 8.369552e+00 1.000000e+00 1.000000e+00 4.629912e-10 3.000000e+00
-6.000000e+00 8.400000e+00 1.000000e+00 1.000000e+00 -1.249511e-09 3.000000e+00
VARIABLES = "X", "Y", "ro", "u", "v", "e_tot" 
ZONE I=3, J=3, DATAPACKING=POINT
-6.000000e+00 -7.600000e+00 1.000000e+00 1.000000e+00 -1.397029e-09 3.000000e+00
-5.500000e+00 -7.630448e+00 1.000000e+00 1.000000e+00 8.277462e-10 3.000000e+00
-5.000000e+00 -7.717157e+00 1.000000e+00 1.000000e+00 -2.224128e-09 3.000000e+00
-5.846927e+00 -7.100000e+00 1.000000e+00 1.000000e+00 6.686089e-10 3.000000e+00
-5.346927e+00 -7.130448e+00 1.000000e+00 1.000000e+00 -4.796172e-10 3.000000e+00
-4.846927e+00 -7.217157e+00 1.000000e+00 1.000000e+00 1.586563e-09 3.000000e+00
-5.717157e+00 -6.600000e+00 1.000000e+00 1.000000e+00 -1.322315e-09 3.000000e+00
-5.217157e+00 -6.630448e+00 1.000000e+00 1.000000e+00 9.732041e-10 3.000000e+00
-4.717157e+00 -6.717157e+00 1.000000e+00 1.000000e+00 -2.623679e-09 3.000000e+00
VARIABLES = "X", "Y", "ro", "u", "v", "e_tot" 
ZONE I=3, J=3, DATAPACKING=POINT
-5.717157e+00 -6.600000e+00 1.000000e+00 1.000000e+00 -2.827838e-09 3.000000e+00
-5.217157e+00 -6.630448e+00 1.000000e+00 1.000000e+00 2.182116e-09 3.000000e+00
-4.717157e+00 -6.717157e+00 1.000000e+00 1.000000e+00 -7.835775e-09 3.000000e+00
-5.630448e+00 -6.100000e+00 1.000000e+00 1.000000e+00 1.094193e-09 3.000000e+00
-5.130448e+00 -6.130448e+00 1.000000e+00 1.000000e+00 -9.383541e-10 3.000000e+00
-4.630448e+00 -6.217157e+00 1.000000e+00 1.000000e+00 3.186435e-09 3.000000e+00
-5.600000e+00 -5.600000e+00 1.000000e+00 1.000000e+00 -5.777972e-09 3.000000e+00
-5.100000e+00 -5.630448e+00 1.000000e+00 1.000000e+00 3.439639e-09 3.000000e+00
-4.600000e+00 -5.717157e+00 1.000000e+00 1.000000e+00 -7.287130e-09 3.000000e+00
VARIABLES = "X", "Y", "ro", "u", "v", "e_tot" 
ZONE I=3, J=3, DATAPACKING=POINT
-5.600000e+00 -5.600000e+00 1.000000e+00 1.000000e+00 -1.118452e-08 3.000000e+00
-5.100000e+00 -5.630448e+00 1.000000e+00 1.000000e+00 7.653078e-09 3.000000e+00
-4.600000e+00 -5.717157e+00 1.000000e+00 1.000000e+00 -2.228906e-08 3.000000e+00
-5.630448e+00 -5.100000e+00 1.000000e+00 1.000000e+00 -4.716570e-09 3.000000e+00
-5.130448e+00 -5.130448e+00 1.000000e+00 1.000000e+00 2.062127e-09 3.000000e+00
-4.630448e+00 -5.217157e+00 1.000000e+00 1.000000e+00 -6.432374e-09 3.000000e+00
-5.717157e+00 -4.600000e+00 1.000000e+00 1.000000e+00 -7.606523e-08 3.000000e+00
-5.217157e+00 -4.630448e+00 1.000000e+00 1.000000e+00 4.276066e-08 3.000000e+00
-4.717157e+00 -4.717157e+00 1.000000e+00 1.000000e+00 -1.141291e-07 3.000000e+00
VARIABLES = "X", "Y", "ro", "u", "v", "e_tot" 
ZONE I=3, J=3, DATAPACKING=POINT
-5.717157e+00 -4.600000e+00 1.000000e+00 1.000000e+00 -8.681040e-08 3.000000e+00
-5.217157e+00 -4.630448e+00 1.000000e+00 1.000000e+00 5.037799e-08 3.000000e+00
-4.717157e+00 -4.717157e+00 1.000000e+00 1.000000e+00 -1.346766e-07 3.000000e+00
-5.846927e+00 -4.100000e+00 1.000000e+00 1.000000e+00 -2.392081e-07 3.000000e+00
-5.346927e+00 -4.130448e+00 9.999999e-01 1.000000e+00 1.347177e-07 3.000000e+00
-4.846927e+00 -4.217157e+00 1.000000e+00 9.999998e-01 -3.631629e-07 3.000000e+00
-6.000000e+00 -3.600000e+00 1.000000e+00 1.000000e+00 -9.962553e-07 3.000001e+00
-5.500000e+00 -3.630448e+00 9.999998e-01 1.000000e+00 5.595595e-07 3.000000e+00
-5.000000e+00 -3.717157e+00 1.000001e+00 9.999993e-01 -1.495634e-06 3.000001e+00
VARIABLES = "X", "Y", "ro", "u", "v", "e_tot" 
ZONE I=3, J=3, DATAPACKING=POINT
-6.000000e+00 -3.600000e+00 1.000000e+00 1.000000e+00 -1.013508e-06 3.000001e+00
-5.500000e+00 -3.630448e+00 9.999998e-01 1.000000e+00 5.663320e-07 3.000000e+00
-5.000000e+00 -3.717157e+00 1.000001e+00 9.999993e-01 -1.515587e-06 3.000001e+00
-6.153073e+00 -3.100000e+00 1.000001e+00 1.000000e+00 -2.937810e-06 3.000001e+00
-5.653073e+00 -3.130448e+00 9.999994e-01 1.000000e+00 1.643275e-06 3.000000e+00
-5.153073e+00 -3.217157e+00 1.000002e+00 9.999984e-01 -4.018424e-06 3.000000e+00
-6.282843e+00 -2.600000e+00 1.000002e+00 1.000001e+00 -6.574426e-06 3.000004e+00
-5.782843e+00 -2.630448e+00 9.999990e-01 1.000000e+00 3.547760e-06 2.999998e+00
-5.282843e+00 -2.717157e+00 1.000004e+00 9.999963e-01 -7.637878e-06 3.000002e+00
VARIABLES = "X", "Y", "ro", "u", "v", "e_tot" 
ZONE I=3, J=3, DATAPACKING=POINT
-6.282843e+00 -2.600000e+00 1.000002e+00 1.000001e+00 -6.791711e-06 3.000004e+00
-5.782843e+00 -2.630448e+00 9.999990e-01 1.000000e+00 3.585325e-06 2.999998e+00
-5.282843e+00 -2.717157e+00 1.000004e+00 9.999962e-01 -7.694788e-06 3.000002e+00