VARIABLES = "X", "Y", "ro", "u", "v", "e_tot" 
ZONE I=3, J=3, DATAPACKING=POINT
-8.000000e+00 -8.000000e+00 9.996547e-01 9.996098e-01 1.206241e-04 2.999283e+00
-7.500000e+00 -7.846927e+00 9.998670e-01 9.995510e-01 -5.973775e-06 2.999372e+00
-7.000000e+00 -7.717157e+00 9.999481e-01 9.996206e-01 1.026217e-04 2.999619e+00
-7.846927e+00 -7.500000e+00 1.000205e+00 9.994975e-01 6.971614e-04 2.999694e+00
-7.346927e+00 -7.346927e+00 1.000137e+00 9.995470e-01 9.238501e-04 2.999699e+00
-6.846927e+00 -7.217157e+00 9.999135e-01 9.997083e-01 1.184100e-03 2.999610e+00
-7.717157e+00 -7.000000e+00 1.000346e+00 9.995563e-01 1.124225e-03 2.999920e+00
-7.217157e+00 -6.846927e+00 9.997707e-01 9.997185e-01 1.346626e-03 2.999468e+00
-6.717157e+00 -6.717157e+00 9.991161e-01 9.999873e-01 1.486325e-03 2.999117e+00
VARIABLES = "X", "Y", "ro", "u", "v", "e_tot" 
ZONE I=3, J=3, DATAPACKING=POINT
-7.717157e+00 -7.000000e+00 1.000404e+00 9.995319e-01 1.171721e-03 2.999950e+00
-7.217157e+00 -6.846927e+00 9.998168e-01 9.997143e-01 1.369662e-03 2.999515e+00
-6.717157e+00 -6.717157e+00 9.991448e-01 9.999920e-01 1.445924e-03 2.999146e+00
-7.630448e+00 -6.500000e+00 9.996197e-01 9.998751e-01 6.449810e-04 2.999489e+00
-7.130448e+00 -6.346927e+00 9.989306e-01 9.999802e-01 7.479322e-04 2.998916e+00
-6.630448e+00 -6.217157e+00 9.986455e-01 9.999154e-01 6.220873e-04 2.998561e+00
-7.600000e+00 -6.000000e+00 9.988266e-01 1.000253e+00 7.731585e-05 2.999093e+00
-7.100000e+00 -5.846927e+00 9.988263e-01 1.000105e+00 -5.708610e-05 2.998923e+00
-6.600000e+00 -5.717157e+00 9.992678e-01 9.998447e-01 -3.841910e-04 2.999099e+00
VARIABLES = "X", "Y", "ro", "u", "v", "e_tot" 
ZONE I=3, J=3, DATAPACKING=POINT
-7.600000e+00 -6.000000e+00 9.988014e-01 1.000254e+00 -2.996929e-05 2.999064e+00
-7.100000e+00 -5.846927e+00 9.988111e-01 1.000130e+00 -1.738795e-04 2.998935e+00
-6.600000e+00 -5.717157e+00 9.991872e-01 9.998712e-01 -4.492857e-04 2.999046e+00
-7.630448e+00 -5.500000e+00 9.994354e-01 1.000258e+00 -3.495945e-04 2.999687e+00
-7.130448e+00 -5.346927e+00 9.998617e-01 1.000122e+00 -3.635781e-04 2.999986e+00
-6.630448e+00 -5.217157e+00 1.000344e+00 9.997666e-01 -3.494856e-04 3.000121e+00
-7.717157e+00 -5.000000e+00 1.000473e+00 1.000479e+00 -1.868481e-04 3.000977e+00
-7.217157e+00 -4.846927e+00 1.000579e+00 1.000183e+00 3.620055e-05 3.000770e+00
-6.717157e+00 -4.717157e+00 1.000805e+00 9.997573e-01 -5.592101e-05 3.000524e+00
VARIABLES = "X", "Y", "ro", "u", "v", "e_tot" 
ZONE I=3, J=3, DATAPACKING=POINT
-7.717157e+00 -5.000000e+00 1.000316e+00 1.000410e+00 -1.118363e-04 3.000747e+00
-7.217157e+00 -4.846927e+00 1.000477e+00 1.000154e+00 -4.667603e-06 3.000636e+00
-6.717157e+00 -4.717157e+00 1.000704e+00 9.997870e-01 -2.345952e-04 3.000453e+00
-7.846927e+00 -4.500000e+00 1.000622e+00 1.000068e+00 8.232761e-04 3.000671e+00
-7.346927e+00 -4.346927e+00 1.000933e+00 9.998465e-01 5.923100e-04 3.000770e+00
-6.846927e+00 -4.217157e+00 1.001280e+00 9.996229e-01 2.491608e-04 3.000932e+00
-8.000000e+00 -4.000000e+00 1.000175e+00 1.000661e+00 9.037019e-04 3.000869e+00
-7.500000e+00 -3.846927e+00 1.000501e+00 1.000317e+00 3.677514e-04 3.000885e+00
-7.000000e+00 -3.717157e+00 1.000556e+00 1.000282e+00 -1.845670e-05 3.000849e+00
VARIABLES = "X", "Y", "ro", "u", "v", "e_tot" 
ZONE I=3, J=3, DATAPACKING=POINT
-8.000000e+00 -4.000000e+00 1.000124e+00 1.000640e+00 7.386654e-04 3.000801e+00
-7.500000e+00 -3.846927e+00 1.000256e+00 1.000297e+00 1.552862e-04 3.000614e+00
-7.000000e+00 -3.717157e+00 1.000170e+00 1.000325e+00 -3.845378e-04 3.000478e+00
-8.153073e+00 -3.500000e+00 9.998856e-01 1.000369e+00 3.918080e-04 3.000250e+00
-7.653073e+00 -3.346927e+00 9.998958e-01 1.000465e+00 5.021924e-04 3.000261e+00
-7.153073e+00 -3.217157e+00 1.000126e+00 1.003154e+00 -3.971936e-04 3.003307e+00
-8.282843e+00 -3.000000e+00 9.992090e-01 1.002332e+00 1.104981e-04 3.001218e+00
-7.782843e+00 -2.846927e+00 9.981526e-01 1.004652e+00 -6.589581e-04 3.002921e+00
-7.282843e+00 -2.717157e+00 9.988254e-01 1.011403e+00 -6.215804e-03 3.011433e+00
VARIABLES = "X", "Y", "ro", "u", "v", "e_tot" 
ZONE I=3, J=3, DATAPACKING=POINT
-8.282843e+00 -3.000000e+00 9.991649e-01 1.002355e+00 -8.095364e-05 3.001206e+00
-7.782843e+00 -2.846927e+00 9.977363e-01 1.004664e+00 -1.406008e-03 3.002554e+00
-7.282843e+00 -2.717157e+00 9.981739e-01 1.011422e+00 -7.555237e-03 3.010712e+00
-8.369552e+00 -2.500000e+00 9.991018e-01 1.005895e+00 -6.248445e-04 3.004408e+00
-7.869552e+00 -2.346927e+00 9.988700e-01 1.005951e+00 -4.125956e-03 3.005600e+00
-7.369552e+00 -2.217157e+00 1.003120e+00 1.022006e+00 -2.142217e-02 3.022868e+00
-8.400000e+00 -2.000000e+00 9.977127e-01 1.011789e+00 -2.963556e-03 3.011488e+00
-7.900000e+00 -1.846927e+00 9.984337e-01 1.013395e+00 -1.500134e-02 3.011361e+00
-7.400000e+00 -1.717157e+00 1.002538e+00 1.053866e+00 -6.122151e-02 3.052771e+00
VARIABLES = "X", "Y", "ro", "u", "v", "e_tot" 
ZONE I=3, J=3, DATAPACKING=POINT
-8.400000e+00 -2.000000e+00 9.976114e-01 1.011765e+00 -3.375537e-03 3.011533e+00
-7.900000e+00 -1.846927e+00 9.983269e-01 1.013426e+00 -1.606149e-02 3.011307e+00
-7.400000e+00 -1.717157e+00 1.003261e+00 1.053697e+00 -6.271952e-02 3.053609e+00
-8.369552e+00 -1.500000e+00 9.967868e-01 1.014067e+00 -8.218380e-03 3.016800e+00
-7.869552e+00 -1.346927e+00 1.001495e+00 1.026153e+00 -4.672346e-02 3.025029e+00
-7.369552e+00 -1.217157e+00 1.001761e+00 1.099278e+00 -1.550500e-01 3.112499e+00
-8.282843e+00 -1.000000e+00 9.952530e-01 1.016100e+00 -1.746210e-02 3.015517e+00
-7.782843e+00 -8.469266e-01 1.002908e+00 1.045205e+00 -1.116472e-01 3.046282e+00
-7.282843e+00 -7.171573e-01 9.893537e-01 1.131893e+00 -3.056223e-01 3.176627e+00
VARIABLES = "X", "Y", "ro", "u", "v", "e_tot" 
ZONE I=3, J=3, DATAPACKING=POINT
-8.282843e+00 -1.000000e+00 9.956528e-01 1.015900e+00 -1.788967e-02 3.016040e+00
-7.782843e+00 -8.469266e-01 1.002918e+00 1.044643e+00 -1.131833e-01 3.046100e+00
-7.282843e+00 -7.171573e-01 9.867872e-01 1.129609e+00 -3.072119e-01 3.173318e+00
-8.153073e+00 -5.000000e-01 9.969585e-01 1.011618e+00 -4.757835e-02 3.007720e+00
-7.653073e+00 -3.469266e-01 1.004984e+00 1.030872e+00 -2.013327e-01 3.057142e+00
-7.153073e+00 -2.171573e-01 9.801038e-01 1.055811e+00 -4.491162e-01 3.146911e+00
-8.000000e+00 9.797174e-17 9.980277e-01 1.005322e+00 -9.638745e-02 2.994968e+00
-7.500000e+00 1.530734e-01 9.996392e-01 9.859736e-01 -2.808180e-01 3.037930e+00
-7.000000e+00 2.828427e-01 9.739033e-01 9.037845e-01 -5.263873e-01 3.013306e+00
VARIABLES = "X", "Y", "ro", "u", "v", "e_tot" 
ZONE I=3, J=3, DATAPACKING=POINT
-8.000000e+00 9.797174e-17 9.965842e-01 1.005574e+00 -9.686030e-02 2.995033e+00
-7.500000e+00 1.530734e-01 9.967176e-01 9.844847e-01 -2.801759e-01 3.032154e+00
-7.000000e+00 2.828427e-01 9.689140e-01 9.032156e-01 -5.255392e-01 3.009269e+00
-7.846927e+00 5.000000e-01 9.960964e-01 9.775406e-01 -1.232202e-01 2.979705e+00
-7.346927e+00 6.530734e-01 9.911227e-01 9.010180e-01 -2.901103e-01 2.941901e+00
-6.846927e+00 7.828427e-01 9.624063e-01 7.477397e-01 -4.709347e-01 2.853845e+00
-7.717157e+00 1.000000e+00 9.961349e-01 9.438622e-01 -1.062406e-01 2.954477e+00
-7.217157e+00 1.153073e+00 9.875012e-01 8.486240e-01 -2.188947e-01 2.866266e+00
-6.717157e+00 1.282843e+00 9.683876e-01 6.962830e-01 -3.140869e-01 2.768604e+00
VARIABLES = "X", "Y", "ro", "u", "v", "e_tot" 
ZONE I=3, J=3, DATAPACKING=POINT
-7.717157e+00 1.000000e+00 9.961973e-01 9.447473e-01 -1.066822e-01 2.954153e+00
-7.217157e+00 1.153073e+00 9.890690e-01 8.516840e-01 -2.213650e-01 2.871973e+00
-6.717157e+00 1.282843e+00 9.734172e-01 7.001553e-01 -3.181433e-01 2.776322e+00
-7.630448e+00 1.500000e+00 1.003659e+00 9.486858e-01 -6.005466e-02 2.951617e+00
-7.130448e+00 1.653073e+00 9.949156e-01 8.901302e-01 -1.169269e-01 2.896888e+00
-6.630448e+00 1.782843e+00 9.956921e-01 7.914347e-01 -1.602476e-01 2.816107e+00
-7.600000e+00 2.000000e+00 1.003365e+00 9.741767e-01 -1.899638e-02 2.978890e+00
-7.100000e+00 2.153073e+00 9.977117e-01 9.565087e-01 -3.885373e-02 2.950488e+00
-6.600000e+00 2.282843e+00 9.986236e-01 9.166686e-01 -5.345834e-02 2.919599e+00
VARIABLES = "X", "Y", "ro", "u", "v", "e_tot" 
ZONE I=3, J=3, DATAPACKING=POINT
-7.600000e+00 2.000000e+00 1.004716e+00 9.732821e-01 -1.948251e-02 2.979086e+00
-7.100000e+00 2.153073e+00 9.991097e-01 9.551046e-01 -4.010776e-02 2.951656e+00
-6.600000e+00 2.282843e+00 1.000332e+00 9.146696e-01 -5.420861e-02 2.918805e+00
-7.630448e+00 2.500000e+00 1.001925e+00 9.858741e-01 -5.387644e-03 2.989507e+00
-7.130448e+00 2.653073e+00 9.982296e-01 9.794512e-01 -1.271143e-02 2.980679e+00
-6.630448e+00 2.782843e+00 9.993701e-01 9.667620e-01 -1.726688e-02 2.966355e+00
-7.717157e+00 3.000000e+00 1.001050e+00 9.978890e-01 1.095578e-03 2.996639e+00
-7.217157e+00 3.153073e+00 1.001823e+00 9.970704e-01 -1.766670e-03 2.993744e+00
-6.717157e+00 3.282843e+00 1.001703e+00 9.922852e-01 -5.183195e-03 2.995169e+00
VARIABLES = "X", "Y", "ro", "u", "v", "e_tot" 
ZONE I=3, J=3, DATAPACKING=POINT
-7.717157e+00 3.000000e+00 1.001211e+00 9.976702e-01 1.232355e-03 2.997007e+00
-7.217157e+00 3.153073e+00 1.001383e+00 9.968319e-01 -1.261166e-03 2.994048e+00
-6.717157e+00 3.282843e+00 1.001072e+00 9.921336e-01 -3.715432e-03 2.994044e+00
-7.846927e+00 3.500000e+00 9.995910e-01 1.001096e+00 6.242166e-04 3.001437e+00
-7.346927e+00 3.653073e+00 9.995237e-01 1.001769e+00 3.325391e-04 3.002912e+00
-6.846927e+00 3.782843e+00 9.996237e-01 1.002968e+00 -6.661372e-05 3.001762e+00
-8.000000e+00 4.000000e+00 1.000288e+00 9.979524e-01 -1.423400e-03 2.997053e+00
-7.500000e+00 4.153073e+00 1.001460e+00 9.957479e-01 -1.905671e-03 2.994828e+00
-7.000000e+00 4.282843e+00 1.000016e+00 9.948979e-01 -2.508001e-03 2.996970e+00
VARIABLES = "X", "Y", "ro", "u", "v", "e_tot" 
ZONE I=3, J=3, DATAPACKING=POINT
-8.000000e+00 4.000000e+00 1.000105e+00 9.983521e-01 -9.155772e-04 2.997575e+00
-7.500000e+00 4.153073e+00 1.001070e+00 9.963651e-01 -1.124983e-03 2.995604e+00
-7.000000e+00 4.282843e+00 9.997756e-01 9.956203e-01 -1.714538e-03 2.997077e+00
-8.153073e+00 4.500000e+00 9.993943e-01 1.001556e+00 1.761439e-05 3.001244e+00
-7.653073e+00 4.653073e+00 9.993492e-01 1.002343e+00 2.713159e-04 3.002294e+00
-7.153073e+00 4.782843e+00 1.000460e+00 1.002135e+00 4.772625e-04 3.001711e+00
-8.282843e+00 5.000000e+00 1.000217e+00 9.984157e-01 -7.773750e-04 2.998206e+00
-7.782843e+00 5.153073e+00 1.000337e+00 9.978129e-01 -1.330070e-03 2.997234e+00
-7.282843e+00 5.282843e+00 9.995647e-01 9.976941e-01 -1.360693e-03 2.998781e+00
VARIABLES = "X", "Y", "ro", "u", "v", "e_tot" 
ZONE I=3, J=3, DATAPACKING=POINT
-8.282843e+00 5.000000e+00 1.000141e+00 9.987425e-01 -3.285594e-04 2.998589e+00
-7.782843e+00 5.153073e+00 1.000160e+00 9.983122e-01 -8.638984e-04 2.997787e+00
-7.282843e+00 5.282843e+00 9.995019e-01 9.982303e-01 -1.208480e-03 2.998958e+00
-8.369552e+00 5.500000e+00 9.995410e-01 1.000860e+00 -1.053427e-04 3.000478e+00
-7.869552e+00 5.653073e+00 9.998111e-01 1.001044e+00 -9.521334e-05 3.001087e+00
-7.369552e+00 5.782843e+00 1.000033e+00 1.001162e+00 -2.719821e-04 3.000715e+00
-8.400000e+00 6.000000e+00 9.998611e-01 9.996490e-01 -1.053551e-03 2.999418e+00
-7.900000e+00 6.153073e+00 9.998904e-01 9.993686e-01 -9.566680e-04 2.998887e+00
-7.400000e+00 6.282843e+00 9.994351e-01 9.992532e-01 -5.781092e-04 2.999408e+00
VARIABLES = "X", "Y", "ro", "u", "v", "e_tot" 
ZONE I=3, J=3, DATAPACKING=POINT
-8.400000e+00 6.000000e+00 9.997334e-01 9.998150e-01 -8.409484e-04 2.999495e+00
-7.900000e+00 6.153073e+00 9.997424e-01 9.996095e-01 -8.078539e-04 2.999073e+00
-7.400000e+00 6.282843e+00 9.994241e-01 9.994853e-01 -5.698444e-04 2.999471e+00
-8.369552e+00 6.500000e+00 9.997747e-01 1.000446e+00 -4.153914e-05 3.000223e+00
-7.869552e+00 6.653073e+00 9.995728e-01 1.000652e+00 5.862372e-05 3.000324e+00
-7.369552e+00 6.782843e+00 9.996144e-01 1.000535e+00 4.703582e-05 2.999968e+00
-8.282843e+00 7.000000e+00 9.996886e-01 1.000023e+00 3.882887e-04 2.999720e+00
-7.782843e+00 7.153073e+00 9.997080e-01 9.999275e-01 1.551425e-04 2.999478e+00
-7.282843e+00 7.282843e+00 9.996384e-01 9.998823e-01 -1.461087e-04 2.999773e+00
VARIABLES = "X", "Y", "ro", "u", "v", "e_tot" 
ZONE I=3, J=3, DATAPACKING=POINT
-8.282843e+00 7.000000e+00 9.997064e-01 1.000075e+00 4.467935e-04 2.999795e+00
-7.782843e+00 7.153073e+00 9.997119e-01 1.000007e+00 1.961042e-04 2.999600e+00
-7.282843e+00 7.282843e+00 9.996650e-01 9.999510e-01 -1.524910e-04 2.999806e+00
-8.153073e+00 7.500000e+00 9.994930e-01 1.000072e+00 4.101405e-04 2.999554e+00
-7.653073e+00 7.653073e+00 9.996850e-01 9.999490e-01 6.630448e-06 2.999675e+00
-7.153073e+00 7.782843e+00 9.999109e-01 9.998319e-01 -3.377285e-04 2.999690e+00
-8.000000e+00 8.000000e+00 9.997109e-01 9.995726e-01 1.185612e-04 2.999305e+00
-7.500000e+00 8.153073e+00 9.999431e-01 9.995175e-01 -1.059643e-05 2.999398e+00
-7.000000e+00 8.282843e+00 9.999902e-01 9.996057e-01 1.136535e-04 2.999667e+00
VARIABLES = "X", "Y", "ro", "u", "v", "e_tot" 
ZONE I=3, J=3, DATAPACKING=POINT
-7.000000e+00 -7.717157e+00 9.999566e-01 9.996262e-01 8.411614e-05 2.999629e+00
-6.500000e+00 -7.630448e+00 9.998544e-01 9.997828e-01 4.163390e-04 2.999858e+00
-6.000000e+00 -7.600000e+00 9.997815e-01 9.999096e-01 6.713146e-04 2.999835e+00
-6.846927e+00 -7.217157e+00 9.999226e-01 9.997205e-01 1.179228e-03 2.999633e+00
-6.346927e+00 -7.130448e+00 9.995934e-01 9.998353e-01 1.404069e-03 2.999364e+00
-5.846927e+00 -7.100000e+00 9.992504e-01 9.998464e-01 1.499031e-03 2.999056e+00
-6.717157e+00 -6.717157e+00 9.991169e-01 9.999854e-01 1.501881e-03 2.999113e+00
-6.217157e+00 -6.630448e+00 9.986610e-01 1.000021e+00 1.418199e-03 2.998777e+00
-5.717157e+00 -6.600000e+00 9.983812e-01 9.998450e-01 1.237236e-03 2.998285e+00
VARIABLES = "X", "Y", "ro", "u", "v", "e_tot" 
ZONE I=3, J=3, DATAPACKING=POINT
-6.717157e+00 -6.717157e+00 9.991448e-01 9.999883e-01 1.461932e-03 2.999138e+00
-6.217157e+00 -6.630448e+00 9.986890e-01 1.000024e+00 1.320846e-03 2.998794e+00
-5.717157e+00 -6.600000e+00 9.983933e-01 9.998471e-01 1.127117e-03 2.998299e+00
-6.630448e+00 -6.217157e+00 9.986341e-01 9.998982e-01 6.352091e-04 2.998535e+00
-6.130448e+00 -6.130448e+00 9.987092e-01 9.997277e-01 3.230957e-04 2.998412e+00
-5.630448e+00 -6.100000e+00 9.987315e-01 9.995697e-01 1.430511e-04 2.998284e+00
-6.600000e+00 -5.717157e+00 9.992599e-01 9.998364e-01 -3.976942e-04 2.999077e+00
-6.100000e+00 -5.630448e+00 9.996817e-01 9.997351e-01 -5.525933e-04 2.999450e+00
-5.600000e+00 -5.600000e+00 9.999435e-01 9.996105e-01 -5.655606e-04 2.999577e+00
VARIABLES = "X", "Y", "ro", "u", "v", "e_tot" 
ZONE I=3, J=3, DATAPACKING=POINT
-6.600000e+00 -5.717157e+00 9.991756e-01 9.998613e-01 -4.620965e-04 2.999018e+00
-6.100000e+00 -5.630448e+00 9.995648e-01 9.997377e-01 -5.625799e-04 2.999332e+00
-5.600000e+00 -5.600000e+00 9.998453e-01 9.996073e-01 -5.376353e-04 2.999476e+00
-6.630448e+00 -5.217157e+00 1.000330e+00 9.997655e-01 -3.455385e-04 3.000109e+00
-6.130448e+00 -5.130448e+00 1.000616e+00 9.996466e-01 -3.748497e-04 3.000257e+00
-5.630448e+00 -5.100000e+00 1.000846e+00 9.995499e-01 -4.968737e-04 3.000393e+00
-6.717157e+00 -4.717157e+00 1.000789e+00 9.997440e-01 -3.626707e-05 3.000490e+00
-6.217157e+00 -4.630448e+00 1.001038e+00 9.995352e-01 -4.974987e-04 3.000540e+00
-5.717157e+00 -4.600000e+00 1.001291e+00 9.993353e-01 -9.377665e-04 3.000616e+00
VARIABLES = "X", "Y", "ro", "u", "v", "e_tot" 
ZONE I=3, J=3, DATAPACKING=POINT
-6.717157e+00 -4.717157e+00 1.000689e+00 9.997751e-01 -2.155935e-04 3.000420e+00
-6.217157e+00 -4.630448e+00 1.000883e+00 9.995780e-01 -7.397189e-04 3.000433e+00
-5.717157e+00 -4.600000e+00 1.001115e+00 9.993454e-01 -1.153237e-03 3.000454e+00
-6.846927e+00 -4.217157e+00 1.001260e+00 9.995936e-01 2.871966e-04 3.000883e+00
-6.346927e+00 -4.130448e+00 1.001542e+00 9.997407e-01 -3.879130e-04 3.001324e+00
-5.846927e+00 -4.100000e+00 1.001597e+00 1.000331e+00 -9.091562e-04 3.001948e+00
-7.000000e+00 -3.717157e+00 1.000465e+00 1.000167e+00 8.705732e-05 3.000675e+00
-6.500000e+00 -3.630448e+00 1.000728e+00 1.001324e+00 -1.120833e-03 3.001871e+00
-6.000000e+00 -3.600000e+00 1.000825e+00 1.003376e+00 -1.874284e-03 3.004023e+00
VARIABLES = "X", "Y", "ro", "u", "v", "e_tot" 
ZONE I=3, J=3, DATAPACKING=POINT
-7.000000e+00 -3.717157e+00 1.000063e+00 1.000189e+00 -2.586225e-04 3.000262e+00
-6.500000e+00 -3.630448e+00 1.000313e+00 1.001439e+00 -1.641504e-03 3.001582e+00
-6.000000e+00 -3.600000e+00 1.000469e+00 1.003407e+00 -2.418539e-03 3.003720e+00
-7.153073e+00 -3.217157e+00 9.998358e-01 1.002761e+00 -4.464039e-05 3.002596e+00
-6.653073e+00 -3.130448e+00 1.000731e+00 1.011158e+00 -4.739534e-03 3.012243e+00
-6.153073e+00 -3.100000e+00 1.000917e+00 1.023106e+00 -7.552079e-03 3.024611e+00
-7.282843e+00 -2.717157e+00 9.981758e-01 1.010775e+00 -5.248549e-03 3.010536e+00
-6.782843e+00 -2.630448e+00 9.999166e-01 1.031286e+00 -1.931000e-02 3.031175e+00
-6.282843e+00 -2.600000e+00 1.000419e+00 1.062794e+00 -2.805401e-02 3.063317e+00
VARIABLES = "X", "Y", "ro", "u", "v", "e_tot" 
ZONE I=3, J=3, DATAPACKING=POINT
-7.282843e+00 -2.717157e+00 9.974498e-01 1.010724e+00 -6.479604e-03 3.009652e+00
-6.782843e+00 -2.630448e+00 9.995136e-01 1.031476e+00 -2.023386e-02 3.030938e+00
-6.282843e+00 -2.600000e+00 1.000875e+00 1.062903e+00 -2.839018e-02 3.063970e+00
-7.369552e+00 -2.217157e+00 1.000876e+00 1.019604e+00 -1.841506e-02 3.017424e+00
-6.869552e+00 -2.130448e+00 1.000633e+00 1.087604e+00 -6.472426e-02 3.090808e+00
-6.369552e+00 -2.100000e+00 9.983233e-01 1.186473e+00 -9.714641e-02 3.206208e+00
-7.400000e+00 -1.717157e+00 9.989369e-01 1.049737e+00 -5.369071e-02 3.042430e+00
-6.900000e+00 -1.630448e+00 9.950210e-01 1.173781e+00 -1.694033e-01 3.194965e+00
-6.400000e+00 -1.600000e+00 9.868575e-01 1.337376e+00 -2.376889e-01 3.406303e+00
VARIABLES = "X", "Y", "ro", "u", "v", "e_tot" 
ZONE I=3, J=3, DATAPACKING=POINT
-7.400000e+00 -1.717157e+00 9.998997e-01 1.049882e+00 -5.513065e-02 3.043916e+00
-6.900000e+00 -1.630448e+00 9.949016e-01 1.173381e+00 -1.708830e-01 3.194979e+00
-6.400000e+00 -1.600000e+00 9.867051e-01 1.337344e+00 -2.363857e-01 3.406458e+00
-7.369552e+00 -1.217157e+00 9.969765e-01 1.093149e+00 -1.450572e-01 3.094638e+00
-6.869552e+00 -1.130448e+00 9.810976e-01 1.252995e+00 -3.385531e-01 3.333167e+00
-6.369552e+00 -1.100000e+00 9.346020e-01 1.453616e+00 -4.363732e-01 3.589465e+00
-7.282843e+00 -7.171573e-01 9.867488e-01 1.129495e+00 -2.964586e-01 3.165270e+00
-6.782843e+00 -6.304482e-01 9.448370e-01 1.258465e+00 -5.548064e-01 3.396123e+00
-6.282843e+00 -6.000000e-01 8.450188e-01 1.415379e+00 -6.555664e-01 3.545578e+00
VARIABLES = "X", "Y", "ro", "u", "v", "e_tot" 
ZONE I=3, J=3, DATAPACKING=POINT
-7.282843e+00 -7.171573e-01 9.846904e-01 1.127918e+00 -2.988389e-01 3.164363e+00
-6.782843e+00 -6.304482e-01 9.388001e-01 1.253654e+00 -5.539776e-01 3.383825e+00
-6.282843e+00 -6.000000e-01 8.388160e-01 1.413987e+00 -6.522311e-01 3.535397e+00
-7.153073e+00 -2.171573e-01 9.825702e-01 1.055943e+00 -4.503244e-01 3.147501e+00
-6.653073e+00 -1.304482e-01 9.031313e-01 1.068079e+00 -6.796168e-01 3.202151e+00
-6.153073e+00 -1.000000e-01 7.423851e-01 1.075770e+00 -7.730560e-01 3.082487e+00
-7.000000e+00 2.828427e-01 9.828998e-01 9.062746e-01 -5.355973e-01 3.013192e+00
-6.500000e+00 3.695518e-01 8.660329e-01 7.631700e-01 -6.866890e-01 2.882127e+00
-6.000000e+00 4.000000e-01 7.152506e-01 5.238146e-01 -6.782312e-01 2.506276e+00
VARIABLES = "X", "Y", "ro", "u", "v", "e_tot" 
ZONE I=3, J=3, DATAPACKING=POINT
-7.000000e+00 2.828427e-01 9.766314e-01 9.063080e-01 -5.342799e-01 3.011515e+00
-6.500000e+00 3.695518e-01 8.618936e-01 7.678493e-01 -6.920647e-01 2.888946e+00
-6.000000e+00 4.000000e-01 7.031891e-01 5.480916e-01 -6.922423e-01 2.546376e+00
-6.846927e+00 7.828427e-01 9.673779e-01 7.525261e-01 -4.783923e-01 2.867108e+00
-6.346927e+00 8.695518e-01 8.944676e-01 5.433039e-01 -5.243753e-01 2.674284e+00
-5.846927e+00 9.000000e-01 7.921280e-01 3.450885e-01 -3.899704e-01 2.481136e+00
-6.717157e+00 1.282843e+00 9.700438e-01 7.000808e-01 -3.157153e-01 2.780817e+00
-6.217157e+00 1.369552e+00 9.574716e-01 5.092992e-01 -3.137717e-01 2.616174e+00
-5.717157e+00 1.400000e+00 9.450669e-01 3.558505e-01 -1.966048e-01 2.481707e+00
VARIABLES = "X", "Y", "ro", "u", "v", "e_tot" 
ZONE I=3, J=3, DATAPACKING=POINT
-6.717157e+00 1.282843e+00 9.762392e-01 7.042684e-01 -3.203011e-01 2.788666e+00
-6.217157e+00 1.369552e+00 9.574786e-01 5.152431e-01 -3.103394e-01 2.623370e+00
-5.717157e+00 1.400000e+00 9.385154e-01 3.621707e-01 -1.853898e-01 2.485829e+00
-6.630448e+00 1.782843e+00 9.973134e-01 7.936491e-01 -1.623324e-01 2.816070e+00
-6.130448e+00 1.869552e+00 9.830892e-01 6.895746e-01 -1.434956e-01 2.740854e+00
-5.630448e+00 1.900000e+00 9.800350e-01 6.015520e-01 -7.325327e-02 2.680301e+00
-6.600000e+00 2.282843e+00 9.980314e-01 9.181295e-01 -5.395753e-02 2.923950e+00
-6.100000e+00 2.369552e+00 1.001985e+00 8.717140e-01 -5.014554e-02 2.869766e+00
-5.600000e+00 2.400000e+00 1.006026e+00 8.370825e-01 -2.077728e-02 2.833418e+00
VARIABLES = "X", "Y", "ro", "u", "v", "e_tot" 
ZONE I=3, J=3, DATAPACKING=POINT
-6.600000e+00 2.282843e+00 1.000046e+00 9.161608e-01 -5.451810e-02 2.922657e+00
-6.100000e+00 2.369552e+00 1.001877e+00 8.709094e-01 -4.874907e-02 2.870512e+00
-5.600000e+00 2.400000e+00 1.006590e+00 8.370839e-01 -2.128323e-02 2.835119e+00
-6.630448e+00 2.782843e+00 9.995945e-01 9.671057e-01 -1.701689e-02 2.965928e+00
-6.130448e+00 2.869552e+00 9.971023e-01 9.557347e-01 -1.619981e-02 2.955986e+00
-5.630448e+00 2.900000e+00 9.985196e-01 9.422679e-01 -9.035621e-03 2.948583e+00
-6.717157e+00 3.282843e+00 1.001496e+00 9.925120e-01 -5.059919e-03 2.996496e+00
-6.217157e+00 3.369552e+00 1.000671e+00 9.888821e-01 -7.287437e-03 2.990480e+00
-5.717157e+00 3.400000e+00 9.996212e-01 9.875245e-01 -5.058117e-03 2.982550e+00
VARIABLES = "X", "Y", "ro", "u", "v", "e_tot" 
ZONE I=3, J=3, DATAPACKING=POINT
-6.717157e+00 3.282843e+00 1.000972e+00 9.923342e-01 -3.478381e-03 2.995093e+00
-6.217157e+00 3.369552e+00 9.996631e-01 9.888802e-01 -6.166074e-03 2.989630e+00
-5.717157e+00 3.400000e+00 9.990214e-01 9.874368e-01 -5.824932e-03 2.982193e+00
-6.846927e+00 3.782843e+00 9.998083e-01 1.002955e+00 -2.126790e-04 3.001653e+00
-6.346927e+00 3.869552e+00 1.001121e+00 1.000728e+00 -4.112049e-04 2.999939e+00
-5.846927e+00 3.900000e+00 1.000225e+00 9.991790e-01 -1.211904e-03 2.999355e+00
-7.000000e+00 4.282843e+00 9.997286e-01 9.948491e-01 -2.583058e-03 2.997112e+00
-6.500000e+00 4.369552e+00 9.986813e-01 9.959760e-01 -1.613668e-03 2.998534e+00
-6.000000e+00 4.400000e+00 1.000086e+00 9.966547e-01 -4.600129e-05 2.997465e+00
VARIABLES = "X", "Y", "ro", "u", "v", "e_tot" 
ZONE I=3, J=3, DATAPACKING=POINT
-7.000000e+00 4.282843e+00 9.995986e-01 9.956135e-01 -1.742776e-03 2.997205e+00
-6.500000e+00 4.369552e+00 9.983658e-01 9.963886e-01 -1.876817e-03 2.998325e+00
-6.000000e+00 4.400000e+00 9.999299e-01 9.966031e-01 -6.052444e-04 2.997363e+00
-7.153073e+00 4.782843e+00 1.000548e+00 1.002194e+00 5.749476e-04 3.001746e+00
-6.653073e+00 4.869552e+00 1.000827e+00 1.001796e+00 6.353928e-06 3.000889e+00
-6.153073e+00 4.900000e+00 1.000480e+00 1.001119e+00 -5.317862e-04 3.000927e+00
-7.282843e+00 5.282843e+00 9.994652e-01 9.976371e-01 -1.449481e-03 2.998817e+00
-6.782843e+00 5.369552e+00 9.993534e-01 9.979584e-01 -4.634735e-04 3.000141e+00
-6.282843e+00 5.400000e+00 9.997753e-01 9.989051e-01 1.071085e-04 2.999769e+00
VARIABLES = "X", "Y", "ro", "u", "v", "e_tot" 
ZONE I=3, J=3, DATAPACKING=POINT
-7.282843e+00 5.282843e+00 9.994273e-01 9.981925e-01 -1.307091e-03 2.998961e+00
-6.782843e+00 5.369552e+00 9.994040e-01 9.982136e-01 -6.757697e-04 3.000156e+00
-6.282843e+00 5.400000e+00 9.999226e-01 9.988827e-01 -1.307771e-04 2.999927e+00
-7.369552e+00 5.782843e+00 1.000066e+00 1.001186e+00 -2.635493e-04 3.000729e+00
-6.869552e+00 5.869552e+00 1.000160e+00 1.000842e+00 -5.189178e-04 3.000027e+00
-6.369552e+00 5.900000e+00 1.000168e+00 1.000311e+00 -5.050670e-04 3.000030e+00
-7.400000e+00 6.282843e+00 9.993874e-01 9.992211e-01 -5.771927e-04 2.999395e+00
-6.900000e+00 6.369552e+00 9.989662e-01 9.996947e-01 -1.823297e-04 3.000144e+00
-6.400000e+00 6.400000e+00 9.991598e-01 1.000223e+00 -2.332833e-05 3.000051e+00
VARIABLES = "X", "Y", "ro", "u", "v", "e_tot" 
ZONE I=3, J=3, DATAPACKING=POINT
-7.400000e+00 6.282843e+00 9.993895e-01 9.994616e-01 -5.756141e-04 2.999445e+00
-6.900000e+00 6.369552e+00 9.990686e-01 9.997931e-01 -3.508016e-04 3.000172e+00
-6.400000e+00 6.400000e+00 9.992781e-01 1.000218e+00 -2.398671e-04 3.000173e+00
-7.369552e+00 6.782843e+00 9.996129e-01 1.000530e+00 5.687980e-05 2.999952e+00
-6.869552e+00 6.869552e+00 9.998253e-01 1.000270e+00 -1.228673e-04 2.999647e+00
-6.369552e+00 6.900000e+00 9.999129e-01 1.000109e+00 -3.540752e-04 2.999790e+00
-7.282843e+00 7.282843e+00 9.996313e-01 9.998745e-01 -1.498312e-04 2.999773e+00
-6.782843e+00 7.369552e+00 9.996367e-01 9.999372e-01 -3.733087e-04 3.000229e+00
-6.282843e+00 7.400000e+00 9.998696e-01 9.999950e-01 -6.322933e-04 3.000196e+00
VARIABLES = "X", "Y", "ro", "u", "v", "e_tot" 
ZONE I=3, J=3, DATAPACKING=POINT
-7.282843e+00 7.282843e+00 9.996625e-01 9.999452e-01 -1.583928e-04 2.999798e+00
-6.782843e+00 7.369552e+00 9.996785e-01 9.999584e-01 -4.323286e-04 3.000208e+00
-6.282843e+00 7.400000e+00 9.998860e-01 9.999949e-01 -6.874612e-04 3.000214e+00
-7.153073e+00 7.782843e+00 9.999278e-01 9.998508e-01 -3.480366e-04 2.999727e+00
-6.653073e+00 7.869552e+00 1.000011e+00 9.997126e-01 -5.188404e-04 2.999543e+00
-6.153073e+00 7.900000e+00 1.000006e+00 9.996649e-01 -5.808674e-04 2.999567e+00
-7.000000e+00 8.282843e+00 9.999984e-01 9.996116e-01 9.699657e-05 2.999680e+00
-6.500000e+00 8.369552e+00 9.998328e-01 9.997921e-01 4.304993e-04 2.999881e+00
-6.000000e+00 8.400000e+00 9.997237e-01 9.999162e-01 6.529400e-04 2.999783e+00
VARIABLES = "X", "Y", "ro", "u", "v", "e_tot" 
ZONE I=3, J=3, DATAPACKING=POINT
-6.000000e+00 -7.600000e+00 9.997902e-01 9.999175e-01 6.776072e-04 2.999843e+00
-5.500000e+00 -7.630448e+00 9.998180e-01 9.999333e-01 6.929609e-04 2.999778e+00
-5.000000e+00 -7.717157e+00 9.999702e-01 9.999941e-01 4.866485e-04 2.999989e+00
-5.846927e+00 -7.100000e+00 9.992517e-01 9.998493e-01 1.501787e-03 2.999063e+00
-5.346927e+00 -7.130448e+00 9.990161e-01 9.998166e-01 1.410358e-03 2.998824e+00
-4.846927e+00 -7.217157e+00 9.990091e-01 9.998079e-01 1.145867e-03 2.998810e+00
-5.717157e+00 -6.600000e+00 9.983923e-01 9.998547e-01 1.233795e-03 2.998300e+00
-5.217157e+00 -6.630448e+00 9.981998e-01 9.995712e-01 1.059639e-03 2.997788e+00
-4.717157e+00 -6.717157e+00 9.981167e-01 9.994179e-01 9.068222e-04 2.997554e+00
VARIABLES = "X", "Y", "ro", "u", "v", "e_tot" 
ZONE I=3, J=3, DATAPACKING=POINT
-5.717157e+00 -6.600000e+00 9.984057e-01 9.998586e-01 1.124969e-03 2.998318e+00
-5.217157e+00 -6.630448e+00 9.981834e-01 9.995633e-01 9.599633e-04 2.997766e+00
-4.717157e+00 -6.717157e+00 9.980852e-01 9.993885e-01 8.112796e-04 2.997495e+00
-5.630448e+00 -6.100000e+00 9.987385e-01 9.995770e-01 1.385550e-04 2.998301e+00
-5.130448e+00 -6.130448e+00 9.986499e-01 9.993953e-01 1.471059e-04 2.998034e+00
-4.630448e+00 -6.217157e+00 9.984758e-01 9.992930e-01 2.397818e-04 2.997754e+00
-5.600000e+00 -5.600000e+00 9.999542e-01 9.996179e-01 -5.640643e-04 2.999583e+00
-5.100000e+00 -5.630448e+00 9.999853e-01 9.994236e-01 -4.715323e-04 2.999445e+00
-4.600000e+00 -5.717157e+00 9.997520e-01 9.993535e-01 -2.184101e-04 2.999122e+00
VARIABLES = "X", "Y", "ro", "u", "v", "e_tot" 
ZONE I=3, J=3, DATAPACKING=POINT
-5.600000e+00 -5.600000e+00 9.998575e-01 9.996161e-01 -5.351619e-04 2.999483e+00
-5.100000e+00 -5.630448e+00 9.999200e-01 9.994210e-01 -4.188000e-04 2.999379e+00
-4.600000e+00 -5.717157e+00 9.997332e-01 9.993434e-01 -1.691719e-04 2.999085e+00
-5.630448e+00 -5.100000e+00 1.000848e+00 9.995593e-01 -5.005590e-04 3.000417e+00
-5.130448e+00 -5.130448e+00 1.000828e+00 9.995635e-01 -5.240015e-04 3.000356e+00
-4.630448e+00 -5.217157e+00 1.000590e+00 9.996149e-01 -4.170228e-04 3.000206e+00
-5.717157e+00 -4.600000e+00 1.001303e+00 9.993643e-01 -9.536389e-04 3.000638e+00
-5.217157e+00 -4.630448e+00 1.001087e+00 9.994221e-01 -9.530216e-04 3.000526e+00
-4.717157e+00 -4.717157e+00 1.000842e+00 9.994111e-01 -7.697067e-04 3.000046e+00
VARIABLES = "X", "Y", "ro", "u", "v", "e_tot" 
ZONE I=3, J=3, DATAPACKING=POINT
-5.717157e+00 -4.600000e+00 1.001134e+00 9.993821e-01 -1.162562e-03 3.000489e+00
-5.217157e+00 -4.630448e+00 1.000924e+00 9.993782e-01 -1.144236e-03 3.000305e+00
-4.717157e+00 -4.717157e+00 1.000732e+00 9.993419e-01 -9.304982e-04 2.999804e+00
-5.846927e+00 -4.100000e+00 1.001596e+00 1.000350e+00 -9.406577e-04 3.001974e+00
-5.346927e+00 -4.130448e+00 1.001329e+00 1.000855e+00 -9.495878e-04 3.002218e+00
-4.846927e+00 -4.217157e+00 1.001076e+00 1.000624e+00 -1.047747e-03 3.001967e+00
-6.000000e+00 -3.600000e+00 1.000880e+00 1.003493e+00 -1.996771e-03 3.004251e+00
-5.500000e+00 -3.630448e+00 1.000902e+00 1.004322e+00 -1.236753e-03 3.004650e+00
-5.000000e+00 -3.717157e+00 1.001407e+00 1.003120e+00 -1.104826e-03 3.003461e+00
VARIABLES = "X", "Y", "ro", "u", "v", "e_tot" 
ZONE I=3, J=3, DATAPACKING=POINT
-6.000000e+00 -3.600000e+00 1.000591e+00 1.003593e+00 -2.509146e-03 3.004109e+00
-5.500000e+00 -3.630448e+00 1.000372e+00 1.004140e+00 -1.854517e-03 3.003835e+00
-5.000000e+00 -3.717157e+00 1.000754e+00 1.002986e+00 -1.810823e-03 3.002496e+00
-6.153073e+00 -3.100000e+00 1.000842e+00 1.023090e+00 -8.061285e-03 3.024420e+00
-5.653073e+00 -3.130448e+00 1.000580e+00 1.029738e+00 -3.368865e-03 3.031623e+00
-5.153073e+00 -3.217157e+00 1.000775e+00 1.023620e+00 1.503476e-03 3.025866e+00
-6.282843e+00 -2.600000e+00 9.998293e-01 1.062448e+00 -2.942112e-02 3.062699e+00
-5.782843e+00 -2.630448e+00 9.997695e-01 1.088485e+00 -1.740425e-02 3.088569e+00
-5.282843e+00 -2.717157e+00 9.988876e-01 1.086920e+00 -4.883183e-04 3.087776e+00
VARIABLES = "X", "Y", "ro", "u", "v", "e_tot" 
ZONE I=3, J=3, DATAPACKING=POINT
-6.282843e+00 -2.600000e+00 1.000506e+00 1.062757e+00 -2.967522e-02 3.063955e+00
-5.782843e+00 -2.630448e+00 9.999538e-01 1.087621e+00 -1.817398e-02 3.087495e+00